<?xml version="1.0" encoding="UTF-8"?>

<!-- generated on 2026-04-09T01:06:50.258551+01:00 by Eclipse SUMO sumo 1.26.0
<sumoConfiguration xmlns:xsi="http://www.w3.org/2001/XMLSchema-instance" xsi:noNamespaceSchemaLocation="http://sumo.dlr.de/xsd/sumoConfiguration.xsd">

    <input>
        <net-file value="net_xml\frag_krakow_2.net.xml"/>
        <route-files value="routes\routes2.xml"/>
    </input>

    <output>
        <tripinfo-output value="output\tripinfo2.xml"/>
    </output>

    <time>
        <end value="3600"/>
    </time>

</sumoConfiguration>
-->

<tripinfos xmlns:xsi="http://www.w3.org/2001/XMLSchema-instance" xsi:noNamespaceSchemaLocation="http://sumo.dlr.de/xsd/tripinfo_file.xsd">
    <tripinfo id="2" depart="2.00" departLane="307157806#4_0" departPos="5.10" departSpeed="0.00" departDelay="0.00" arrival="14.00" arrivalLane="277424358_0" arrivalPos="35.14" arrivalSpeed="20.82" duration="12.00" routeLength="114.80" waitingTime="0.00" waitingCount="0" stopTime="0.00" timeLoss="4.34" rerouteNo="0" devices="tripinfo_2" vType="DEFAULT_VEHTYPE" speedFactor="1.01" vaporized=""/>
    <tripinfo id="3" depart="3.00" departLane="689359241#9_0" departPos="5.10" departSpeed="0.00" departDelay="0.00" arrival="45.00" arrivalLane="-21094558#3_0" arrivalPos="91.12" arrivalSpeed="13.76" duration="42.00" routeLength="546.55" waitingTime="0.00" waitingCount="0" stopTime="0.00" timeLoss="4.86" rerouteNo="0" devices="tripinfo_3" vType="DEFAULT_VEHTYPE" speedFactor="1.08" vaporized=""/>
    <tripinfo id="7" depart="7.00" departLane="26041281#5_0" departPos="5.10" departSpeed="0.00" departDelay="0.00" arrival="84.00" arrivalLane="24525405#0_0" arrivalPos="38.75" arrivalSpeed="6.84" duration="77.00" routeLength="451.17" waitingTime="0.00" waitingCount="0" stopTime="0.00" timeLoss="9.64" rerouteNo="0" devices="tripinfo_7" vType="DEFAULT_VEHTYPE" speedFactor="0.89" vaporized=""/>
    <tripinfo id="31" depart="31.00" departLane="-340398942#1_0" departPos="5.10" departSpeed="0.00" departDelay="0.00" arrival="86.00" arrivalLane="-1379270344_0" arrivalPos="48.57" arrivalSpeed="15.55" duration="55.00" routeLength="603.02" waitingTime="0.00" waitingCount="0" stopTime="0.00" timeLoss="11.16" rerouteNo="0" devices="tripinfo_31" vType="DEFAULT_VEHTYPE" speedFactor="1.15" vaporized=""/>
    <tripinfo id="44" depart="44.00" departLane="440915828#1_1" departPos="5.10" departSpeed="0.00" departDelay="0.00" arrival="98.00" arrivalLane="155221402#1_1" arrivalPos="40.87" arrivalSpeed="14.01" duration="54.00" routeLength="232.38" waitingTime="28.00" waitingCount="1" stopTime="0.00" timeLoss="37.03" rerouteNo="0" devices="tripinfo_44" vType="DEFAULT_VEHTYPE" speedFactor="1.04" vaporized=""/>
    <tripinfo id="57" depart="57.00" departLane="25805269#2_0" departPos="5.10" departSpeed="0.00" departDelay="0.00" arrival="109.00" arrivalLane="-25805343#5_0" arrivalPos="15.31" arrivalSpeed="8.80" duration="52.00" routeLength="425.59" waitingTime="0.00" waitingCount="0" stopTime="0.00" timeLoss="6.75" rerouteNo="0" devices="tripinfo_57" vType="DEFAULT_VEHTYPE" speedFactor="1.14" vaporized=""/>
    <tripinfo id="60" depart="60.00" departLane="-1049078992_0" departPos="5.10" departSpeed="0.00" departDelay="0.00" arrival="109.00" arrivalLane="-832279012#3_0" arrivalPos="21.18" arrivalSpeed="14.44" duration="49.00" routeLength="328.24" waitingTime="0.00" waitingCount="0" stopTime="0.00" timeLoss="15.81" rerouteNo="0" devices="tripinfo_60" vType="DEFAULT_VEHTYPE" speedFactor="1.08" vaporized=""/>
    <tripinfo id="34" depart="34.00" departLane="665788942#0_0" departPos="5.10" departSpeed="0.00" departDelay="0.00" arrival="111.00" arrivalLane="-828599362_0" arrivalPos="66.45" arrivalSpeed="7.75" duration="77.00" routeLength="518.43" waitingTime="1.00" waitingCount="1" stopTime="0.00" timeLoss="13.17" rerouteNo="0" devices="tripinfo_34" vType="DEFAULT_VEHTYPE" speedFactor="0.99" vaporized=""/>
    <tripinfo id="4" depart="4.00" departLane="1475969721_0" departPos="3.70" departSpeed="0.00" departDelay="0.00" arrival="112.00" arrivalLane="-1376134753#1_0" arrivalPos="129.01" arrivalSpeed="7.36" duration="108.00" routeLength="1026.52" waitingTime="6.00" waitingCount="1" stopTime="0.00" timeLoss="21.73" rerouteNo="0" devices="tripinfo_4" vType="DEFAULT_VEHTYPE" speedFactor="1.03" vaporized=""/>
    <tripinfo id="17" depart="18.00" departLane="627370853#3_0" departPos="5.10" departSpeed="0.00" departDelay="1.00" arrival="117.00" arrivalLane="25116632#4_0" arrivalPos="64.12" arrivalSpeed="7.26" duration="99.00" routeLength="728.77" waitingTime="0.00" waitingCount="0" stopTime="0.00" timeLoss="11.90" rerouteNo="0" devices="tripinfo_17" vType="DEFAULT_VEHTYPE" speedFactor="0.94" vaporized=""/>
    <tripinfo id="58" depart="58.00" departLane="371870327#0_0" departPos="5.10" departSpeed="0.00" departDelay="0.00" arrival="122.00" arrivalLane="24365262#2_0" arrivalPos="0.20" arrivalSpeed="13.00" duration="64.00" routeLength="799.14" waitingTime="0.00" waitingCount="0" stopTime="0.00" timeLoss="6.40" rerouteNo="0" devices="tripinfo_58" vType="DEFAULT_VEHTYPE" speedFactor="1.02" vaporized=""/>
    <tripinfo id="27" depart="27.00" departLane="-26256115_0" departPos="5.10" departSpeed="0.00" departDelay="0.00" arrival="125.00" arrivalLane="1246831929_0" arrivalPos="93.89" arrivalSpeed="11.92" duration="98.00" routeLength="1000.20" waitingTime="0.00" waitingCount="0" stopTime="0.00" timeLoss="13.62" rerouteNo="0" devices="tripinfo_27" vType="DEFAULT_VEHTYPE" speedFactor="0.95" vaporized=""/>
    <tripinfo id="56" depart="56.00" departLane="-72050011#0_0" departPos="5.10" departSpeed="0.00" departDelay="0.00" arrival="130.00" arrivalLane="26041277#8_0" arrivalPos="29.21" arrivalSpeed="6.26" duration="74.00" routeLength="473.01" waitingTime="0.00" waitingCount="0" stopTime="0.00" timeLoss="8.26" rerouteNo="0" devices="tripinfo_56" vType="DEFAULT_VEHTYPE" speedFactor="0.90" vaporized=""/>
    <tripinfo id="13" depart="13.00" departLane="538978472_0" departPos="1.15" departSpeed="0.00" departDelay="0.00" arrival="131.00" arrivalLane="25805269#1_0" arrivalPos="16.45" arrivalSpeed="8.31" duration="118.00" routeLength="889.09" waitingTime="35.00" waitingCount="1" stopTime="0.00" timeLoss="54.48" rerouteNo="0" devices="tripinfo_13" vType="DEFAULT_VEHTYPE" speedFactor="1.12" vaporized=""/>
    <tripinfo id="1" depart="1.00" departLane="-627370853#1_0" departPos="5.10" departSpeed="0.00" departDelay="0.00" arrival="132.00" arrivalLane="-340398942#1_0" arrivalPos="284.18" arrivalSpeed="12.48" duration="131.00" routeLength="1349.82" waitingTime="0.00" waitingCount="0" stopTime="0.00" timeLoss="16.18" rerouteNo="0" devices="tripinfo_1" vType="DEFAULT_VEHTYPE" speedFactor="0.94" vaporized=""/>
    <tripinfo id="48" depart="48.00" departLane="-1155847982#1_0" departPos="0.20" departSpeed="0.00" departDelay="0.00" arrival="142.00" arrivalLane="30326777#0_0" arrivalPos="12.26" arrivalSpeed="7.69" duration="94.00" routeLength="682.87" waitingTime="8.00" waitingCount="1" stopTime="0.00" timeLoss="25.19" rerouteNo="0" devices="tripinfo_48" vType="DEFAULT_VEHTYPE" speedFactor="0.88" vaporized=""/>
    <tripinfo id="117" depart="117.00" departLane="-190102383#2_0" departPos="0.35" departSpeed="0.00" departDelay="0.00" arrival="147.00" arrivalLane="190102383#7_0" arrivalPos="0.20" arrivalSpeed="8.27" duration="30.00" routeLength="205.59" waitingTime="0.00" waitingCount="0" stopTime="0.00" timeLoss="4.81" rerouteNo="0" devices="tripinfo_117" vType="DEFAULT_VEHTYPE" speedFactor="1.00" vaporized=""/>
    <tripinfo id="102" depart="102.00" departLane="24345907#6_0" departPos="5.10" departSpeed="0.00" departDelay="0.00" arrival="152.00" arrivalLane="310383580#0_0" arrivalPos="8.95" arrivalSpeed="5.88" duration="50.00" routeLength="503.97" waitingTime="0.00" waitingCount="0" stopTime="0.00" timeLoss="10.39" rerouteNo="0" devices="tripinfo_102" vType="DEFAULT_VEHTYPE" speedFactor="0.97" vaporized=""/>
    <tripinfo id="9" depart="9.00" departLane="456689171_0" departPos="5.10" departSpeed="0.00" departDelay="0.00" arrival="158.00" arrivalLane="-1155077314_0" arrivalPos="55.28" arrivalSpeed="2.16" duration="149.00" routeLength="1053.67" waitingTime="0.00" waitingCount="0" stopTime="0.00" timeLoss="26.46" rerouteNo="0" devices="tripinfo_9" vType="DEFAULT_VEHTYPE" speedFactor="0.86" vaporized=""/>
    <tripinfo id="5" depart="5.00" departLane="-310331215_0" departPos="5.10" departSpeed="0.00" departDelay="0.00" arrival="163.00" arrivalLane="23825058#7_0" arrivalPos="6.40" arrivalSpeed="5.96" duration="158.00" routeLength="1247.99" waitingTime="20.00" waitingCount="1" stopTime="0.00" timeLoss="44.34" rerouteNo="0" devices="tripinfo_5" vType="DEFAULT_VEHTYPE" speedFactor="0.83" vaporized=""/>
    <tripinfo id="20" depart="20.00" departLane="-21025095#4_0" departPos="5.10" departSpeed="0.00" departDelay="0.00" arrival="166.00" arrivalLane="-40779705#0_0" arrivalPos="36.94" arrivalSpeed="7.98" duration="146.00" routeLength="1179.10" waitingTime="0.00" waitingCount="0" stopTime="0.00" timeLoss="19.45" rerouteNo="0" devices="tripinfo_20" vType="DEFAULT_VEHTYPE" speedFactor="1.02" vaporized=""/>
    <tripinfo id="46" depart="46.00" departLane="93144335#0_0" departPos="5.10" departSpeed="0.00" departDelay="0.00" arrival="167.00" arrivalLane="24345740#7_0" arrivalPos="0.20" arrivalSpeed="7.55" duration="121.00" routeLength="923.73" waitingTime="0.00" waitingCount="0" stopTime="0.00" timeLoss="14.96" rerouteNo="0" devices="tripinfo_46" vType="DEFAULT_VEHTYPE" speedFactor="1.00" vaporized=""/>
    <tripinfo id="55" depart="55.00" departLane="7953786_0" departPos="5.10" departSpeed="0.00" departDelay="0.00" arrival="174.00" arrivalLane="664374772#0_0" arrivalPos="0.20" arrivalSpeed="7.59" duration="119.00" routeLength="890.35" waitingTime="0.00" waitingCount="0" stopTime="0.00" timeLoss="12.27" rerouteNo="0" devices="tripinfo_55" vType="DEFAULT_VEHTYPE" speedFactor="1.00" vaporized=""/>
    <tripinfo id="49" depart="49.00" departLane="277117089_0" departPos="5.10" departSpeed="0.00" departDelay="0.00" arrival="175.00" arrivalLane="24345907#6_0" arrivalPos="7.13" arrivalSpeed="11.81" duration="126.00" routeLength="957.54" waitingTime="30.00" waitingCount="1" stopTime="0.00" timeLoss="43.17" rerouteNo="0" devices="tripinfo_49" vType="DEFAULT_VEHTYPE" speedFactor="0.85" vaporized=""/>
    <tripinfo id="0" depart="0.00" departLane="26041277#14_0" departPos="5.10" departSpeed="0.00" departDelay="0.00" arrival="176.00" arrivalLane="-127051026#4_0" arrivalPos="2.02" arrivalSpeed="8.26" duration="176.00" routeLength="1329.05" waitingTime="21.00" waitingCount="1" stopTime="0.00" timeLoss="47.38" rerouteNo="0" devices="tripinfo_0" vType="DEFAULT_VEHTYPE" speedFactor="1.06" vaporized=""/>
    <tripinfo id="98" depart="98.00" departLane="189125272#1_0" departPos="5.10" departSpeed="0.00" departDelay="0.00" arrival="177.00" arrivalLane="155221402#3_1" arrivalPos="22.15" arrivalSpeed="15.07" duration="79.00" routeLength="666.22" waitingTime="0.00" waitingCount="0" stopTime="0.00" timeLoss="11.18" rerouteNo="0" devices="tripinfo_98" vType="DEFAULT_VEHTYPE" speedFactor="1.12" vaporized=""/>
    <tripinfo id="30" depart="30.00" departLane="534331570#3_0" departPos="0.20" departSpeed="0.00" departDelay="0.00" arrival="178.00" arrivalLane="40779705#1_0" arrivalPos="13.17" arrivalSpeed="9.44" duration="148.00" routeLength="1232.47" waitingTime="9.00" waitingCount="2" stopTime="0.00" timeLoss="40.29" rerouteNo="0" devices="tripinfo_30" vType="DEFAULT_VEHTYPE" speedFactor="1.18" vaporized=""/>
    <tripinfo id="69" depart="69.00" departLane="24345907#2_0" departPos="5.10" departSpeed="0.00" departDelay="0.00" arrival="179.00" arrivalLane="307157806#0_0" arrivalPos="78.13" arrivalSpeed="13.42" duration="110.00" routeLength="1316.91" waitingTime="0.00" waitingCount="0" stopTime="0.00" timeLoss="14.68" rerouteNo="0" devices="tripinfo_69" vType="DEFAULT_VEHTYPE" speedFactor="1.02" vaporized=""/>
    <tripinfo id="140" depart="140.00" departLane="72049982#0_0" departPos="5.10" departSpeed="0.00" departDelay="0.00" arrival="184.00" arrivalLane="24525405#0_0" arrivalPos="38.75" arrivalSpeed="8.67" duration="44.00" routeLength="309.47" waitingTime="0.00" waitingCount="0" stopTime="0.00" timeLoss="6.02" rerouteNo="0" devices="tripinfo_140" vType="DEFAULT_VEHTYPE" speedFactor="1.11" vaporized=""/>
    <tripinfo id="11" depart="11.00" departLane="-856444545#0_0" departPos="2.97" departSpeed="0.00" departDelay="0.00" arrival="188.00" arrivalLane="-25805343#8_0" arrivalPos="6.01" arrivalSpeed="7.59" duration="177.00" routeLength="1557.18" waitingTime="10.00" waitingCount="1" stopTime="0.00" timeLoss="33.30" rerouteNo="0" devices="tripinfo_11" vType="DEFAULT_VEHTYPE" speedFactor="1.03" vaporized=""/>
    <tripinfo id="33" depart="33.00" departLane="-30788110#1_0" departPos="5.10" departSpeed="0.00" departDelay="0.00" arrival="190.00" arrivalLane="828601125#2_0" arrivalPos="6.14" arrivalSpeed="8.89" duration="157.00" routeLength="1421.18" waitingTime="25.00" waitingCount="1" stopTime="0.00" timeLoss="42.93" rerouteNo="0" devices="tripinfo_33" vType="DEFAULT_VEHTYPE" speedFactor="1.17" vaporized=""/>
    <tripinfo id="114" depart="114.00" departLane="-40779666#1_0" departPos="5.10" departSpeed="0.00" departDelay="0.00" arrival="193.00" arrivalLane="1389984333_0" arrivalPos="17.50" arrivalSpeed="14.66" duration="79.00" routeLength="741.76" waitingTime="0.00" waitingCount="0" stopTime="0.00" timeLoss="14.92" rerouteNo="0" devices="tripinfo_114" vType="DEFAULT_VEHTYPE" speedFactor="1.10" vaporized=""/>
    <tripinfo id="155" depart="155.00" departLane="-31766445#4_0" departPos="0.20" departSpeed="0.00" departDelay="0.00" arrival="193.00" arrivalLane="475556401#0_0" arrivalPos="29.00" arrivalSpeed="11.75" duration="38.00" routeLength="397.95" waitingTime="0.00" waitingCount="0" stopTime="0.00" timeLoss="10.53" rerouteNo="0" devices="tripinfo_155" vType="DEFAULT_VEHTYPE" speedFactor="1.12" vaporized=""/>
    <tripinfo id="41" depart="41.00" departLane="93144343_0" departPos="5.10" departSpeed="0.00" departDelay="0.00" arrival="205.00" arrivalLane="240869997_0" arrivalPos="95.86" arrivalSpeed="12.46" duration="164.00" routeLength="1903.63" waitingTime="0.00" waitingCount="0" stopTime="0.00" timeLoss="17.96" rerouteNo="0" devices="tripinfo_41" vType="DEFAULT_VEHTYPE" speedFactor="0.96" vaporized=""/>
    <tripinfo id="96" depart="96.00" departLane="117618422#0_0" departPos="5.10" departSpeed="0.00" departDelay="0.00" arrival="205.00" arrivalLane="852688551#1_0" arrivalPos="19.51" arrivalSpeed="13.66" duration="109.00" routeLength="828.75" waitingTime="0.00" waitingCount="0" stopTime="0.00" timeLoss="12.35" rerouteNo="0" devices="tripinfo_96" vType="DEFAULT_VEHTYPE" speedFactor="1.01" vaporized=""/>
    <tripinfo id="122" depart="122.00" departLane="1155847982#0_0" departPos="4.11" departSpeed="0.00" departDelay="0.00" arrival="209.00" arrivalLane="-25805358#1_0" arrivalPos="19.87" arrivalSpeed="7.48" duration="87.00" routeLength="519.14" waitingTime="0.00" waitingCount="0" stopTime="0.00" timeLoss="13.87" rerouteNo="0" devices="tripinfo_122" vType="DEFAULT_VEHTYPE" speedFactor="1.03" vaporized=""/>
    <tripinfo id="36" depart="36.00" departLane="825434646#0_0" departPos="5.10" departSpeed="0.00" departDelay="0.00" arrival="215.00" arrivalLane="190102383#7_0" arrivalPos="0.20" arrivalSpeed="7.31" duration="179.00" routeLength="1377.36" waitingTime="44.00" waitingCount="2" stopTime="0.00" timeLoss="63.14" rerouteNo="0" devices="tripinfo_36" vType="DEFAULT_VEHTYPE" speedFactor="0.97" vaporized=""/>
    <tripinfo id="63" depart="63.00" departLane="-819776431#3_0" departPos="0.20" departSpeed="0.00" departDelay="0.00" arrival="215.00" arrivalLane="-163858120#4_0" arrivalPos="8.38" arrivalSpeed="7.18" duration="152.00" routeLength="701.25" waitingTime="38.00" waitingCount="1" stopTime="0.00" timeLoss="54.80" rerouteNo="0" devices="tripinfo_63" vType="DEFAULT_VEHTYPE" speedFactor="0.99" vaporized=""/>
    <tripinfo id="150" depart="150.00" departLane="-127051026#5_0" departPos="5.10" departSpeed="0.00" departDelay="0.00" arrival="216.00" arrivalLane="30788108_0" arrivalPos="28.54" arrivalSpeed="7.46" duration="66.00" routeLength="558.91" waitingTime="0.00" waitingCount="0" stopTime="0.00" timeLoss="9.95" rerouteNo="0" devices="tripinfo_150" vType="DEFAULT_VEHTYPE" speedFactor="0.96" vaporized=""/>
    <tripinfo id="39" depart="39.00" departLane="25117106_0" departPos="5.10" departSpeed="0.00" departDelay="0.00" arrival="218.00" arrivalLane="720444271#0_0" arrivalPos="22.53" arrivalSpeed="11.48" duration="179.00" routeLength="1147.91" waitingTime="40.00" waitingCount="2" stopTime="0.00" timeLoss="62.21" rerouteNo="0" devices="tripinfo_39" vType="DEFAULT_VEHTYPE" speedFactor="0.90" vaporized=""/>
    <tripinfo id="116" depart="116.00" departLane="-825472426#6_0" departPos="5.10" departSpeed="0.00" departDelay="0.00" arrival="231.00" arrivalLane="31766445#5_0" arrivalPos="20.30" arrivalSpeed="14.50" duration="115.00" routeLength="1340.40" waitingTime="0.00" waitingCount="0" stopTime="0.00" timeLoss="17.36" rerouteNo="0" devices="tripinfo_116" vType="DEFAULT_VEHTYPE" speedFactor="1.18" vaporized=""/>
    <tripinfo id="107" depart="107.00" departLane="25123158_0" departPos="5.10" departSpeed="0.00" departDelay="0.00" arrival="233.00" arrivalLane="277117087_2" arrivalPos="41.41" arrivalSpeed="13.60" duration="126.00" routeLength="970.81" waitingTime="19.00" waitingCount="1" stopTime="0.00" timeLoss="35.42" rerouteNo="0" devices="tripinfo_107" vType="DEFAULT_VEHTYPE" speedFactor="1.03" vaporized=""/>
    <tripinfo id="28" depart="28.00" departLane="856444545#1_0" departPos="5.10" departSpeed="0.00" departDelay="0.00" arrival="234.00" arrivalLane="26041277#9_0" arrivalPos="22.79" arrivalSpeed="8.25" duration="206.00" routeLength="1864.91" waitingTime="0.00" waitingCount="0" stopTime="0.00" timeLoss="30.63" rerouteNo="0" devices="tripinfo_28" vType="DEFAULT_VEHTYPE" speedFactor="1.13" vaporized=""/>
    <tripinfo id="64" depart="64.00" departLane="665788942#2_0" departPos="5.10" departSpeed="0.00" departDelay="0.00" arrival="235.00" arrivalLane="828935024#0_0" arrivalPos="9.38" arrivalSpeed="7.31" duration="171.00" routeLength="1359.31" waitingTime="0.00" waitingCount="0" stopTime="0.00" timeLoss="18.21" rerouteNo="0" devices="tripinfo_64" vType="DEFAULT_VEHTYPE" speedFactor="0.94" vaporized=""/>
    <tripinfo id="97" depart="97.00" departLane="-538978472_0" departPos="1.15" departSpeed="0.00" departDelay="0.00" arrival="235.00" arrivalLane="431445480#0_0" arrivalPos="37.04" arrivalSpeed="12.03" duration="138.00" routeLength="1148.24" waitingTime="34.00" waitingCount="1" stopTime="0.00" timeLoss="46.15" rerouteNo="0" devices="tripinfo_97" vType="DEFAULT_VEHTYPE" speedFactor="0.91" vaporized=""/>
    <tripinfo id="170" depart="170.00" departLane="24345907#1_0" departPos="5.10" departSpeed="0.00" departDelay="0.00" arrival="235.00" arrivalLane="30326770#4_0" arrivalPos="5.44" arrivalSpeed="13.63" duration="65.00" routeLength="747.45" waitingTime="0.00" waitingCount="0" stopTime="0.00" timeLoss="12.73" rerouteNo="0" devices="tripinfo_170" vType="DEFAULT_VEHTYPE" speedFactor="1.09" vaporized=""/>
    <tripinfo id="51" depart="51.00" departLane="-23825058#8_0" departPos="5.10" departSpeed="0.00" departDelay="0.00" arrival="236.00" arrivalLane="177210496#3_0" arrivalPos="27.16" arrivalSpeed="9.45" duration="185.00" routeLength="1730.99" waitingTime="19.00" waitingCount="3" stopTime="0.00" timeLoss="68.54" rerouteNo="0" devices="tripinfo_51" vType="DEFAULT_VEHTYPE" speedFactor="1.17" vaporized=""/>
    <tripinfo id="73" depart="73.00" departLane="-24193284#1_0" departPos="5.10" departSpeed="0.00" departDelay="0.00" arrival="236.00" arrivalLane="-360788208_0" arrivalPos="3.22" arrivalSpeed="5.65" duration="163.00" routeLength="833.10" waitingTime="58.00" waitingCount="4" stopTime="0.00" timeLoss="86.43" rerouteNo="0" devices="tripinfo_73" vType="DEFAULT_VEHTYPE" speedFactor="1.06" vaporized=""/>
    <tripinfo id="146" depart="146.00" departLane="-45447180#1_0" departPos="5.10" departSpeed="0.00" departDelay="0.00" arrival="237.00" arrivalLane="-23778348#8_0" arrivalPos="1.64" arrivalSpeed="7.04" duration="91.00" routeLength="646.15" waitingTime="0.00" waitingCount="0" stopTime="0.00" timeLoss="13.93" rerouteNo="0" devices="tripinfo_146" vType="DEFAULT_VEHTYPE" speedFactor="0.89" vaporized=""/>
    <tripinfo id="156" depart="156.00" departLane="190102383#10_0" departPos="5.10" departSpeed="0.00" departDelay="0.00" arrival="238.00" arrivalLane="-825472426#15_0" arrivalPos="0.82" arrivalSpeed="8.58" duration="82.00" routeLength="477.06" waitingTime="21.00" waitingCount="1" stopTime="0.00" timeLoss="31.93" rerouteNo="0" devices="tripinfo_156" vType="DEFAULT_VEHTYPE" speedFactor="1.18" vaporized=""/>
    <tripinfo id="37" depart="37.00" departLane="-533193151_0" departPos="5.10" departSpeed="0.00" departDelay="0.00" arrival="244.00" arrivalLane="-46168999#0_0" arrivalPos="106.71" arrivalSpeed="16.36" duration="207.00" routeLength="2029.27" waitingTime="58.00" waitingCount="2" stopTime="0.00" timeLoss="81.64" rerouteNo="0" devices="tripinfo_37" vType="DEFAULT_VEHTYPE" speedFactor="1.18" vaporized=""/>
    <tripinfo id="82" depart="82.00" departLane="45450579#0_0" departPos="5.10" departSpeed="0.00" departDelay="0.00" arrival="244.00" arrivalLane="-30326770#3_0" arrivalPos="0.20" arrivalSpeed="13.72" duration="162.00" routeLength="1518.27" waitingTime="19.00" waitingCount="1" stopTime="0.00" timeLoss="40.25" rerouteNo="0" devices="tripinfo_82" vType="DEFAULT_VEHTYPE" speedFactor="1.02" vaporized=""/>
    <tripinfo id="65" depart="65.00" departLane="-21094558#1_0" departPos="5.10" departSpeed="0.00" departDelay="0.00" arrival="245.00" arrivalLane="237414655#2_0" arrivalPos="0.20" arrivalSpeed="6.87" duration="180.00" routeLength="1362.29" waitingTime="33.00" waitingCount="1" stopTime="0.00" timeLoss="51.53" rerouteNo="0" devices="tripinfo_65" vType="DEFAULT_VEHTYPE" speedFactor="0.88" vaporized=""/>
    <tripinfo id="14" depart="14.00" departLane="45450579#0_0" departPos="5.10" departSpeed="0.00" departDelay="0.00" arrival="247.00" arrivalLane="307157805_0" arrivalPos="69.74" arrivalSpeed="13.03" duration="233.00" routeLength="2114.89" waitingTime="41.00" waitingCount="2" stopTime="0.00" timeLoss="64.67" rerouteNo="0" devices="tripinfo_14" vType="DEFAULT_VEHTYPE" speedFactor="0.99" vaporized=""/>
    <tripinfo id="135" depart="135.00" departLane="-1116771100_0" departPos="5.10" departSpeed="0.00" departDelay="0.00" arrival="247.00" arrivalLane="396270578_0" arrivalPos="5.61" arrivalSpeed="5.27" duration="112.00" routeLength="610.16" waitingTime="0.00" waitingCount="0" stopTime="0.00" timeLoss="15.30" rerouteNo="0" devices="tripinfo_135" vType="DEFAULT_VEHTYPE" speedFactor="1.01" vaporized=""/>
    <tripinfo id="188" depart="191.00" departLane="475556394#1_0" departPos="5.10" departSpeed="0.00" departDelay="3.00" arrival="247.00" arrivalLane="31766445#4_0" arrivalPos="0.20" arrivalSpeed="12.85" duration="56.00" routeLength="644.17" waitingTime="0.00" waitingCount="0" stopTime="0.00" timeLoss="6.31" rerouteNo="0" devices="tripinfo_188" vType="DEFAULT_VEHTYPE" speedFactor="0.97" vaporized=""/>
    <tripinfo id="75" depart="75.00" departLane="-340398943#1_0" departPos="5.10" departSpeed="0.00" departDelay="0.00" arrival="250.00" arrivalLane="-317923312#1_0" arrivalPos="56.66" arrivalSpeed="12.46" duration="175.00" routeLength="1015.26" waitingTime="44.00" waitingCount="3" stopTime="0.00" timeLoss="72.03" rerouteNo="0" devices="tripinfo_75" vType="DEFAULT_VEHTYPE" speedFactor="0.98" vaporized=""/>
    <tripinfo id="42" depart="42.00" departLane="-22431100#1_0" departPos="5.10" departSpeed="0.00" departDelay="0.00" arrival="253.00" arrivalLane="-1494386147_0" arrivalPos="21.36" arrivalSpeed="2.50" duration="211.00" routeLength="1858.95" waitingTime="29.00" waitingCount="1" stopTime="0.00" timeLoss="56.46" rerouteNo="0" devices="tripinfo_42" vType="DEFAULT_VEHTYPE" speedFactor="1.09" vaporized=""/>
    <tripinfo id="47" depart="47.00" departLane="834338011#11_0" departPos="0.20" departSpeed="0.00" departDelay="0.00" arrival="253.00" arrivalLane="635795331#0_0" arrivalPos="18.06" arrivalSpeed="6.60" duration="206.00" routeLength="1071.07" waitingTime="42.00" waitingCount="1" stopTime="0.00" timeLoss="62.20" rerouteNo="0" devices="tripinfo_47" vType="DEFAULT_VEHTYPE" speedFactor="0.90" vaporized=""/>
    <tripinfo id="52" depart="52.00" departLane="189125272#0_0" departPos="5.10" departSpeed="0.00" departDelay="0.00" arrival="254.00" arrivalLane="829390854#2_0" arrivalPos="12.51" arrivalSpeed="13.27" duration="202.00" routeLength="1364.73" waitingTime="69.00" waitingCount="3" stopTime="0.00" timeLoss="95.97" rerouteNo="0" devices="tripinfo_52" vType="DEFAULT_VEHTYPE" speedFactor="1.02" vaporized=""/>
    <tripinfo id="221" depart="221.00" departLane="564607399_1" departPos="5.10" departSpeed="0.00" departDelay="0.00" arrival="260.00" arrivalLane="376694602#1_0" arrivalPos="159.55" arrivalSpeed="9.33" duration="39.00" routeLength="370.28" waitingTime="0.00" waitingCount="0" stopTime="0.00" timeLoss="5.77" rerouteNo="0" devices="tripinfo_221" vType="DEFAULT_VEHTYPE" speedFactor="1.15" vaporized=""/>
    <tripinfo id="79" depart="79.00" departLane="-40779666#0_0" departPos="5.10" departSpeed="0.00" departDelay="0.00" arrival="263.00" arrivalLane="26386669#6_0" arrivalPos="25.29" arrivalSpeed="7.98" duration="184.00" routeLength="1537.05" waitingTime="15.00" waitingCount="1" stopTime="0.00" timeLoss="41.50" rerouteNo="0" devices="tripinfo_79" vType="DEFAULT_VEHTYPE" speedFactor="1.09" vaporized=""/>
    <tripinfo id="87" depart="87.00" departLane="-300358971#5_0" departPos="0.50" departSpeed="0.00" departDelay="0.00" arrival="263.00" arrivalLane="189125272#0_1" arrivalPos="6.90" arrivalSpeed="8.10" duration="176.00" routeLength="1358.39" waitingTime="38.00" waitingCount="2" stopTime="0.00" timeLoss="63.81" rerouteNo="0" devices="tripinfo_87" vType="DEFAULT_VEHTYPE" speedFactor="1.04" vaporized=""/>
    <tripinfo id="92" depart="92.00" departLane="832279012#6_0" departPos="5.10" departSpeed="0.00" departDelay="0.00" arrival="263.00" arrivalLane="825472426#9_0" arrivalPos="5.02" arrivalSpeed="6.39" duration="171.00" routeLength="1307.45" waitingTime="14.00" waitingCount="1" stopTime="0.00" timeLoss="34.27" rerouteNo="0" devices="tripinfo_92" vType="DEFAULT_VEHTYPE" speedFactor="0.83" vaporized=""/>
    <tripinfo id="202" depart="202.00" departLane="189125273#0_0" departPos="5.10" departSpeed="0.00" departDelay="0.00" arrival="265.00" arrivalLane="447662462_0" arrivalPos="46.08" arrivalSpeed="7.48" duration="63.00" routeLength="512.61" waitingTime="0.00" waitingCount="0" stopTime="0.00" timeLoss="11.31" rerouteNo="0" devices="tripinfo_202" vType="DEFAULT_VEHTYPE" speedFactor="1.03" vaporized=""/>
    <tripinfo id="23" depart="23.00" departLane="1155847982#1_0" departPos="0.20" departSpeed="0.00" departDelay="0.00" arrival="271.00" arrivalLane="-30788111#0_0" arrivalPos="4.17" arrivalSpeed="11.27" duration="248.00" routeLength="1473.79" waitingTime="52.00" waitingCount="4" stopTime="0.00" timeLoss="91.00" rerouteNo="0" devices="tripinfo_23" vType="DEFAULT_VEHTYPE" speedFactor="0.89" vaporized=""/>
    <tripinfo id="26" depart="26.00" departLane="-26372275#2_0" departPos="0.54" departSpeed="0.00" departDelay="0.00" arrival="272.00" arrivalLane="30601136_0" arrivalPos="85.60" arrivalSpeed="4.78" duration="246.00" routeLength="1670.11" waitingTime="31.00" waitingCount="2" stopTime="0.00" timeLoss="69.01" rerouteNo="0" devices="tripinfo_26" vType="DEFAULT_VEHTYPE" speedFactor="0.92" vaporized=""/>
    <tripinfo id="19" depart="19.00" departLane="-325988699#2_0" departPos="3.39" departSpeed="0.00" departDelay="0.00" arrival="273.00" arrivalLane="-720444271#2_0" arrivalPos="4.48" arrivalSpeed="14.81" duration="254.00" routeLength="1762.97" waitingTime="84.00" waitingCount="3" stopTime="0.00" timeLoss="134.13" rerouteNo="0" devices="tripinfo_19" vType="DEFAULT_VEHTYPE" speedFactor="1.16" vaporized=""/>
    <tripinfo id="164" depart="164.00" departLane="834338011#10_0" departPos="0.20" departSpeed="0.00" departDelay="0.00" arrival="276.00" arrivalLane="-277424371#2_0" arrivalPos="29.29" arrivalSpeed="13.92" duration="112.00" routeLength="630.05" waitingTime="37.00" waitingCount="3" stopTime="0.00" timeLoss="58.26" rerouteNo="0" devices="tripinfo_164" vType="DEFAULT_VEHTYPE" speedFactor="1.05" vaporized=""/>
    <tripinfo id="178" depart="178.00" departLane="-24345907#6_0" departPos="5.10" departSpeed="0.00" departDelay="0.00" arrival="278.00" arrivalLane="155190161#0_0" arrivalPos="45.39" arrivalSpeed="8.04" duration="100.00" routeLength="1165.77" waitingTime="1.00" waitingCount="1" stopTime="0.00" timeLoss="17.84" rerouteNo="0" devices="tripinfo_178" vType="DEFAULT_VEHTYPE" speedFactor="1.08" vaporized=""/>
    <tripinfo id="142" depart="142.00" departLane="-25757066_0" departPos="5.10" departSpeed="0.00" departDelay="0.00" arrival="280.00" arrivalLane="-24345907#9_0" arrivalPos="8.51" arrivalSpeed="7.12" duration="138.00" routeLength="1233.76" waitingTime="3.00" waitingCount="1" stopTime="0.00" timeLoss="24.18" rerouteNo="0" devices="tripinfo_142" vType="DEFAULT_VEHTYPE" speedFactor="0.94" vaporized=""/>
    <tripinfo id="220" depart="220.00" departLane="25117105_0" departPos="5.10" departSpeed="0.00" departDelay="0.00" arrival="280.00" arrivalLane="28593667#0_0" arrivalPos="22.10" arrivalSpeed="7.41" duration="60.00" routeLength="425.52" waitingTime="0.00" waitingCount="0" stopTime="0.00" timeLoss="7.62" rerouteNo="0" devices="tripinfo_220" vType="DEFAULT_VEHTYPE" speedFactor="1.00" vaporized=""/>