<?xml version="1.0" encoding="UTF-8"?>

<!-- generated on 2026-04-08T23:52:01.273316+01:00 by Eclipse SUMO sumo 1.26.0
<sumoConfiguration xmlns:xsi="http://www.w3.org/2001/XMLSchema-instance" xsi:noNamespaceSchemaLocation="http://sumo.dlr.de/xsd/sumoConfiguration.xsd">

    <input>
        <net-file value="net_xml\frag_krakow_2_mod.net.xml"/>
        <route-files value="routes\routes2_mod.xml"/>
    </input>

    <output>
        <tripinfo-output value="output\tripinfo2_mod.xml"/>
    </output>

    <time>
        <end value="3600"/>
    </time>

</sumoConfiguration>
-->

<tripinfos xmlns:xsi="http://www.w3.org/2001/XMLSchema-instance" xsi:noNamespaceSchemaLocation="http://sumo.dlr.de/xsd/tripinfo_file.xsd">
    <tripinfo id="3" depart="3.00" departLane="689359241#9_0" departPos="5.10" departSpeed="0.00" departDelay="0.00" arrival="44.00" arrivalLane="-21094558#3_0" arrivalPos="91.12" arrivalSpeed="14.56" duration="41.00" routeLength="546.55" waitingTime="0.00" waitingCount="0" stopTime="0.00" timeLoss="4.44" rerouteNo="0" devices="tripinfo_3" vType="DEFAULT_VEHTYPE" speedFactor="1.08" vaporized=""/>
    <tripinfo id="6" depart="6.00" departLane="26041281#6_0" departPos="3.65" departSpeed="0.00" departDelay="0.00" arrival="68.00" arrivalLane="24525405#0_0" arrivalPos="38.75" arrivalSpeed="7.42" duration="62.00" routeLength="431.70" waitingTime="0.00" waitingCount="0" stopTime="0.00" timeLoss="7.40" rerouteNo="0" devices="tripinfo_6" vType="DEFAULT_VEHTYPE" speedFactor="1.05" vaporized=""/>
    <tripinfo id="37" depart="37.00" departLane="24731526_0" departPos="5.10" departSpeed="0.00" departDelay="0.00" arrival="83.00" arrivalLane="-545626196#3_0" arrivalPos="9.86" arrivalSpeed="9.80" duration="46.00" routeLength="384.80" waitingTime="0.00" waitingCount="0" stopTime="0.00" timeLoss="5.78" rerouteNo="0" devices="tripinfo_37" vType="DEFAULT_VEHTYPE" speedFactor="1.18" vaporized=""/>
    <tripinfo id="43" depart="43.00" departLane="440915828#1_1" departPos="5.10" departSpeed="0.00" departDelay="0.00" arrival="98.00" arrivalLane="155221402#1_1" arrivalPos="40.87" arrivalSpeed="14.39" duration="55.00" routeLength="232.38" waitingTime="29.00" waitingCount="1" stopTime="0.00" timeLoss="38.04" rerouteNo="0" devices="tripinfo_43" vType="DEFAULT_VEHTYPE" speedFactor="1.04" vaporized=""/>
    <tripinfo id="59" depart="59.00" departLane="-1049078992_0" departPos="5.10" departSpeed="0.00" departDelay="0.00" arrival="110.00" arrivalLane="-832279012#2_0" arrivalPos="5.63" arrivalSpeed="12.78" duration="51.00" routeLength="343.49" waitingTime="0.00" waitingCount="0" stopTime="0.00" timeLoss="13.37" rerouteNo="0" devices="tripinfo_59" vType="DEFAULT_VEHTYPE" speedFactor="0.97" vaporized=""/>
    <tripinfo id="57" depart="57.00" departLane="371870327#1_0" departPos="5.10" departSpeed="0.00" departDelay="0.00" arrival="113.00" arrivalLane="24365262#2_0" arrivalPos="0.20" arrivalSpeed="14.97" duration="56.00" routeLength="738.32" waitingTime="0.00" waitingCount="0" stopTime="0.00" timeLoss="7.93" rerouteNo="0" devices="tripinfo_57" vType="DEFAULT_VEHTYPE" speedFactor="1.14" vaporized=""/>
    <tripinfo id="33" depart="33.00" departLane="665788942#0_0" departPos="5.10" departSpeed="0.00" departDelay="0.00" arrival="114.00" arrivalLane="-825474798_0" arrivalPos="192.38" arrivalSpeed="15.11" duration="81.00" routeLength="913.53" waitingTime="0.00" waitingCount="0" stopTime="0.00" timeLoss="10.86" rerouteNo="0" devices="tripinfo_33" vType="DEFAULT_VEHTYPE" speedFactor="1.17" vaporized=""/>
    <tripinfo id="56" depart="56.00" departLane="25805269#3_0" departPos="0.20" departSpeed="0.00" departDelay="0.00" arrival="118.00" arrivalLane="-25805343#4_0" arrivalPos="0.20" arrivalSpeed="6.23" duration="62.00" routeLength="397.33" waitingTime="0.00" waitingCount="0" stopTime="0.00" timeLoss="7.87" rerouteNo="0" devices="tripinfo_56" vType="DEFAULT_VEHTYPE" speedFactor="0.90" vaporized=""/>
    <tripinfo id="16" depart="16.00" departLane="627370853#4_0" departPos="0.98" departSpeed="0.00" departDelay="0.00" arrival="119.00" arrivalLane="25116632#4_0" arrivalPos="64.12" arrivalSpeed="6.52" duration="103.00" routeLength="688.47" waitingTime="0.00" waitingCount="0" stopTime="0.00" timeLoss="12.34" rerouteNo="0" devices="tripinfo_16" vType="DEFAULT_VEHTYPE" speedFactor="0.88" vaporized=""/>
    <tripinfo id="38" depart="38.00" departLane="25117107_0" departPos="5.10" departSpeed="0.00" departDelay="0.00" arrival="122.00" arrivalLane="720444271#0_0" arrivalPos="22.53" arrivalSpeed="14.38" duration="84.00" routeLength="793.68" waitingTime="15.00" waitingCount="1" stopTime="0.00" timeLoss="26.97" rerouteNo="0" devices="tripinfo_38" vType="DEFAULT_VEHTYPE" speedFactor="1.10" vaporized=""/>
    <tripinfo id="68" depart="68.00" departLane="153672333_0" departPos="5.10" departSpeed="0.00" departDelay="0.00" arrival="122.00" arrivalLane="-30854173_0" arrivalPos="16.95" arrivalSpeed="8.71" duration="54.00" routeLength="490.55" waitingTime="0.00" waitingCount="0" stopTime="0.00" timeLoss="11.91" rerouteNo="0" devices="tripinfo_68" vType="DEFAULT_VEHTYPE" speedFactor="1.04" vaporized=""/>
    <tripinfo id="2" depart="2.00" departLane="30787931#0_0" departPos="5.10" departSpeed="0.00" departDelay="0.00" arrival="130.00" arrivalLane="277424358_0" arrivalPos="35.14" arrivalSpeed="18.75" duration="128.00" routeLength="1380.15" waitingTime="0.00" waitingCount="0" stopTime="0.00" timeLoss="12.79" rerouteNo="0" devices="tripinfo_2" vType="DEFAULT_VEHTYPE" speedFactor="1.01" vaporized=""/>
    <tripinfo id="122" depart="122.00" departLane="67558684#0_0" departPos="5.10" departSpeed="0.00" departDelay="0.00" arrival="133.00" arrivalLane="67558684#0_0" arrivalPos="111.41" arrivalSpeed="13.56" duration="11.00" routeLength="106.31" waitingTime="0.00" waitingCount="0" stopTime="0.00" timeLoss="2.98" rerouteNo="0" devices="tripinfo_122" vType="DEFAULT_VEHTYPE" speedFactor="1.03" vaporized=""/>
    <tripinfo id="8" depart="8.00" departLane="456689171_0" departPos="5.10" departSpeed="0.00" departDelay="0.00" arrival="147.00" arrivalLane="-1155077314_0" arrivalPos="55.28" arrivalSpeed="2.20" duration="139.00" routeLength="1053.67" waitingTime="0.00" waitingCount="0" stopTime="0.00" timeLoss="26.70" rerouteNo="0" devices="tripinfo_8" vType="DEFAULT_VEHTYPE" speedFactor="0.94" vaporized=""/>
    <tripinfo id="118" depart="118.00" departLane="-190102383#2_0" departPos="0.35" departSpeed="0.00" departDelay="0.00" arrival="149.00" arrivalLane="190102383#7_0" arrivalPos="0.20" arrivalSpeed="7.42" duration="31.00" routeLength="205.59" waitingTime="0.00" waitingCount="0" stopTime="0.00" timeLoss="5.42" rerouteNo="0" devices="tripinfo_118" vType="DEFAULT_VEHTYPE" speedFactor="0.99" vaporized=""/>
    <tripinfo id="30" depart="30.00" departLane="-330685745_0" departPos="5.10" departSpeed="0.00" departDelay="0.00" arrival="157.00" arrivalLane="-1379270344_0" arrivalPos="48.57" arrivalSpeed="15.55" duration="127.00" routeLength="1057.00" waitingTime="22.00" waitingCount="1" stopTime="0.00" timeLoss="43.54" rerouteNo="0" devices="tripinfo_30" vType="DEFAULT_VEHTYPE" speedFactor="1.18" vaporized=""/>
    <tripinfo id="45" depart="45.00" departLane="93144335#0_0" departPos="5.10" departSpeed="0.00" departDelay="0.00" arrival="159.00" arrivalLane="24345740#8_0" arrivalPos="0.20" arrivalSpeed="8.90" duration="114.00" routeLength="930.16" waitingTime="0.00" waitingCount="0" stopTime="0.00" timeLoss="16.40" rerouteNo="0" devices="tripinfo_45" vType="DEFAULT_VEHTYPE" speedFactor="1.09" vaporized=""/>
    <tripinfo id="109" depart="109.00" departLane="-378534041#0_0" departPos="5.10" departSpeed="0.00" departDelay="0.00" arrival="161.00" arrivalLane="-24193284#1_0" arrivalPos="126.05" arrivalSpeed="12.67" duration="52.00" routeLength="361.14" waitingTime="0.00" waitingCount="0" stopTime="0.00" timeLoss="8.37" rerouteNo="0" devices="tripinfo_109" vType="DEFAULT_VEHTYPE" speedFactor="0.96" vaporized=""/>
    <tripinfo id="26" depart="26.00" departLane="-26255023#1_0" departPos="1.89" departSpeed="0.00" departDelay="0.00" arrival="163.00" arrivalLane="126376304_0" arrivalPos="190.51" arrivalSpeed="12.58" duration="137.00" routeLength="1220.74" waitingTime="13.00" waitingCount="2" stopTime="0.00" timeLoss="30.62" rerouteNo="0" devices="tripinfo_26" vType="DEFAULT_VEHTYPE" speedFactor="0.92" vaporized=""/>
    <tripinfo id="51" depart="51.00" departLane="189125272#1_0" departPos="5.10" departSpeed="0.00" departDelay="0.00" arrival="168.00" arrivalLane="829390854#2_0" arrivalPos="12.51" arrivalSpeed="16.01" duration="117.00" routeLength="1351.65" waitingTime="0.00" waitingCount="0" stopTime="0.00" timeLoss="26.14" rerouteNo="0" devices="tripinfo_51" vType="DEFAULT_VEHTYPE" speedFactor="1.17" vaporized=""/>
    <tripinfo id="69" depart="69.00" departLane="24345907#4_0" departPos="0.20" departSpeed="0.00" departDelay="0.00" arrival="171.00" arrivalLane="307157805_0" arrivalPos="69.74" arrivalSpeed="13.27" duration="102.00" routeLength="1203.66" waitingTime="0.00" waitingCount="0" stopTime="0.00" timeLoss="14.98" rerouteNo="0" devices="tripinfo_69" vType="DEFAULT_VEHTYPE" speedFactor="1.02" vaporized=""/>
    <tripinfo id="55" depart="56.00" departLane="-72049971#2_0" departPos="5.10" departSpeed="0.00" departDelay="1.00" arrival="176.00" arrivalLane="26041277#8_0" arrivalPos="29.21" arrivalSpeed="7.53" duration="120.00" routeLength="737.44" waitingTime="0.00" waitingCount="0" stopTime="0.00" timeLoss="16.37" rerouteNo="0" devices="tripinfo_55" vType="DEFAULT_VEHTYPE" speedFactor="1.00" vaporized=""/>
    <tripinfo id="0" depart="0.00" departLane="26041277#15_0" departPos="4.05" departSpeed="0.00" departDelay="0.00" arrival="179.00" arrivalLane="-127051026#4_0" arrivalPos="2.02" arrivalSpeed="8.55" duration="179.00" routeLength="1312.36" waitingTime="24.00" waitingCount="1" stopTime="0.00" timeLoss="51.60" rerouteNo="0" devices="tripinfo_0" vType="DEFAULT_VEHTYPE" speedFactor="1.06" vaporized=""/>
    <tripinfo id="29" depart="29.00" departLane="534331570#4_0" departPos="5.10" departSpeed="0.00" departDelay="0.00" arrival="183.00" arrivalLane="40779705#1_0" arrivalPos="13.17" arrivalSpeed="7.66" duration="154.00" routeLength="1220.82" waitingTime="0.00" waitingCount="0" stopTime="0.00" timeLoss="18.84" rerouteNo="0" devices="tripinfo_29" vType="DEFAULT_VEHTYPE" speedFactor="0.93" vaporized=""/>
    <tripinfo id="10" depart="10.00" departLane="-856444545#0_0" departPos="2.97" departSpeed="0.00" departDelay="0.00" arrival="188.00" arrivalLane="-25805343#7_0" arrivalPos="43.63" arrivalSpeed="8.91" duration="178.00" routeLength="1610.19" waitingTime="15.00" waitingCount="1" stopTime="0.00" timeLoss="37.03" rerouteNo="0" devices="tripinfo_10" vType="DEFAULT_VEHTYPE" speedFactor="1.09" vaporized=""/>
    <tripinfo id="141" depart="141.00" departLane="72049982#0_0" departPos="5.10" departSpeed="0.00" departDelay="0.00" arrival="190.00" arrivalLane="24525405#2_0" arrivalPos="40.13" arrivalSpeed="9.26" duration="49.00" routeLength="367.95" waitingTime="0.00" waitingCount="0" stopTime="0.00" timeLoss="6.68" rerouteNo="0" devices="tripinfo_141" vType="DEFAULT_VEHTYPE" speedFactor="1.16" vaporized=""/>
    <tripinfo id="48" depart="48.00" departLane="277424358_0" departPos="5.10" departSpeed="0.00" departDelay="0.00" arrival="192.00" arrivalLane="24345907#8_0" arrivalPos="29.99" arrivalSpeed="11.09" duration="144.00" routeLength="1431.97" waitingTime="2.00" waitingCount="1" stopTime="0.00" timeLoss="23.95" rerouteNo="0" devices="tripinfo_48" vType="DEFAULT_VEHTYPE" speedFactor="0.88" vaporized=""/>
    <tripinfo id="96" depart="96.00" departLane="1389984333_0" departPos="5.10" departSpeed="0.00" departDelay="0.00" arrival="193.00" arrivalLane="-163858120#5_0" arrivalPos="11.93" arrivalSpeed="7.33" duration="97.00" routeLength="799.16" waitingTime="0.00" waitingCount="0" stopTime="0.00" timeLoss="13.19" rerouteNo="0" devices="tripinfo_96" vType="DEFAULT_VEHTYPE" speedFactor="1.01" vaporized=""/>
    <tripinfo id="1" depart="1.00" departLane="-627370853#0_0" departPos="5.10" departSpeed="0.00" departDelay="0.00" arrival="197.00" arrivalLane="-325988699#2_0" arrivalPos="3.39" arrivalSpeed="7.79" duration="196.00" routeLength="2067.15" waitingTime="0.00" waitingCount="0" stopTime="0.00" timeLoss="25.45" rerouteNo="0" devices="tripinfo_1" vType="DEFAULT_VEHTYPE" speedFactor="0.94" vaporized=""/>
    <tripinfo id="64" depart="64.00" departLane="-21094558#1_0" departPos="5.10" departSpeed="0.00" departDelay="0.00" arrival="197.00" arrivalLane="237414655#2_0" arrivalPos="0.20" arrivalSpeed="6.93" duration="133.00" routeLength="1024.63" waitingTime="1.00" waitingCount="1" stopTime="0.00" timeLoss="18.72" rerouteNo="0" devices="tripinfo_64" vType="DEFAULT_VEHTYPE" speedFactor="0.94" vaporized=""/>
    <tripinfo id="40" depart="40.00" departLane="93144343_0" departPos="5.10" departSpeed="0.00" departDelay="0.00" arrival="200.00" arrivalLane="240869997_0" arrivalPos="95.86" arrivalSpeed="13.75" duration="160.00" routeLength="1903.63" waitingTime="6.00" waitingCount="1" stopTime="0.00" timeLoss="23.85" rerouteNo="0" devices="tripinfo_40" vType="DEFAULT_VEHTYPE" speedFactor="1.03" vaporized=""/>
    <tripinfo id="62" depart="62.00" departLane="-825434646#0_0" departPos="5.10" departSpeed="0.00" departDelay="0.00" arrival="203.00" arrivalLane="-163858120#4_0" arrivalPos="8.38" arrivalSpeed="7.46" duration="141.00" routeLength="983.24" waitingTime="13.00" waitingCount="1" stopTime="0.00" timeLoss="45.01" rerouteNo="0" devices="tripinfo_62" vType="DEFAULT_VEHTYPE" speedFactor="1.02" vaporized=""/>
    <tripinfo id="31" depart="31.00" departLane="-825472426#6_0" departPos="5.10" departSpeed="0.00" departDelay="0.00" arrival="207.00" arrivalLane="-627370853#0_0" arrivalPos="73.24" arrivalSpeed="15.98" duration="176.00" routeLength="2170.30" waitingTime="0.00" waitingCount="0" stopTime="0.00" timeLoss="19.09" rerouteNo="0" devices="tripinfo_31" vType="DEFAULT_VEHTYPE" speedFactor="1.15" vaporized=""/>
    <tripinfo id="32" depart="32.00" departLane="-30788110#0_0" departPos="4.47" departSpeed="0.00" departDelay="0.00" arrival="210.00" arrivalLane="828601125#2_0" arrivalPos="6.14" arrivalSpeed="7.66" duration="178.00" routeLength="1362.95" waitingTime="28.00" waitingCount="2" stopTime="0.00" timeLoss="49.48" rerouteNo="0" devices="tripinfo_32" vType="DEFAULT_VEHTYPE" speedFactor="1.01" vaporized=""/>
    <tripinfo id="72" depart="72.00" departLane="177210496#0_0" departPos="5.10" departSpeed="0.00" departDelay="0.00" arrival="217.00" arrivalLane="24157631_0" arrivalPos="17.24" arrivalSpeed="9.94" duration="145.00" routeLength="1504.12" waitingTime="0.00" waitingCount="0" stopTime="0.00" timeLoss="17.09" rerouteNo="0" devices="tripinfo_72" vType="DEFAULT_VEHTYPE" speedFactor="0.94" vaporized=""/>
    <tripinfo id="54" depart="54.00" departLane="7953786_0" departPos="5.10" departSpeed="0.00" departDelay="0.00" arrival="218.00" arrivalLane="65372863_1" arrivalPos="12.42" arrivalSpeed="7.71" duration="164.00" routeLength="1033.44" waitingTime="37.00" waitingCount="1" stopTime="0.00" timeLoss="56.38" rerouteNo="0" devices="tripinfo_54" vType="DEFAULT_VEHTYPE" speedFactor="1.00" vaporized=""/>
    <tripinfo id="151" depart="151.00" departLane="-127051026#5_0" departPos="5.10" departSpeed="0.00" departDelay="0.00" arrival="219.00" arrivalLane="30788108_0" arrivalPos="28.54" arrivalSpeed="7.80" duration="68.00" routeLength="558.91" waitingTime="1.00" waitingCount="1" stopTime="0.00" timeLoss="13.79" rerouteNo="0" devices="tripinfo_151" vType="DEFAULT_VEHTYPE" speedFactor="1.00" vaporized=""/>
    <tripinfo id="35" depart="35.00" departLane="825434646#0_0" departPos="5.10" departSpeed="0.00" departDelay="0.00" arrival="220.00" arrivalLane="190102383#8_0" arrivalPos="7.57" arrivalSpeed="8.29" duration="185.00" routeLength="1393.65" waitingTime="46.00" waitingCount="2" stopTime="0.00" timeLoss="72.33" rerouteNo="0" devices="tripinfo_35" vType="DEFAULT_VEHTYPE" speedFactor="1.02" vaporized=""/>
    <tripinfo id="145" depart="145.00" departLane="447662402#1_0" departPos="5.10" departSpeed="0.00" departDelay="0.00" arrival="220.00" arrivalLane="627370853#4_1" arrivalPos="0.98" arrivalSpeed="15.62" duration="75.00" routeLength="638.31" waitingTime="0.00" waitingCount="0" stopTime="0.00" timeLoss="17.70" rerouteNo="0" devices="tripinfo_145" vType="DEFAULT_VEHTYPE" speedFactor="1.14" vaporized=""/>
    <tripinfo id="147" depart="147.00" departLane="-45447180#0_0" departPos="5.10" departSpeed="0.00" departDelay="0.00" arrival="221.00" arrivalLane="-23778348#8_0" arrivalPos="1.64" arrivalSpeed="7.13" duration="74.00" routeLength="611.70" waitingTime="0.00" waitingCount="0" stopTime="0.00" timeLoss="10.05" rerouteNo="0" devices="tripinfo_147" vType="DEFAULT_VEHTYPE" speedFactor="1.00" vaporized=""/>
    <tripinfo id="19" depart="19.00" departLane="-21025095#3_0" departPos="5.10" departSpeed="0.00" departDelay="0.00" arrival="224.00" arrivalLane="-40779666#1_0" arrivalPos="113.17" arrivalSpeed="9.48" duration="205.00" routeLength="1769.17" waitingTime="3.00" waitingCount="1" stopTime="0.00" timeLoss="32.77" rerouteNo="0" devices="tripinfo_19" vType="DEFAULT_VEHTYPE" speedFactor="1.16" vaporized=""/>
    <tripinfo id="22" depart="22.00" departLane="1156590049#0_0" departPos="5.10" departSpeed="0.00" departDelay="0.00" arrival="224.00" arrivalLane="-30788110#3_0" arrivalPos="6.59" arrivalSpeed="6.45" duration="202.00" routeLength="1715.16" waitingTime="33.00" waitingCount="3" stopTime="0.00" timeLoss="68.96" rerouteNo="0" devices="tripinfo_22" vType="DEFAULT_VEHTYPE" speedFactor="0.97" vaporized=""/>
    <tripinfo id="190" depart="190.00" departLane="475556401#0_0" departPos="5.10" departSpeed="0.00" departDelay="0.00" arrival="226.00" arrivalLane="31766445#4_0" arrivalPos="0.20" arrivalSpeed="11.53" duration="36.00" routeLength="365.45" waitingTime="0.00" waitingCount="0" stopTime="0.00" timeLoss="5.99" rerouteNo="0" devices="tripinfo_190" vType="DEFAULT_VEHTYPE" speedFactor="0.90" vaporized=""/>
    <tripinfo id="4" depart="4.00" departLane="-30971319#4_0" departPos="5.10" departSpeed="0.00" departDelay="0.00" arrival="227.00" arrivalLane="23825058#8_0" arrivalPos="30.28" arrivalSpeed="5.41" duration="223.00" routeLength="2021.97" waitingTime="32.00" waitingCount="3" stopTime="0.00" timeLoss="65.73" rerouteNo="0" devices="tripinfo_4" vType="DEFAULT_VEHTYPE" speedFactor="1.03" vaporized=""/>
    <tripinfo id="84" depart="84.00" departLane="-237414655#7_0" departPos="5.10" departSpeed="0.00" departDelay="0.00" arrival="230.00" arrivalLane="176494047#3_0" arrivalPos="40.51" arrivalSpeed="8.48" duration="146.00" routeLength="1269.49" waitingTime="0.00" waitingCount="0" stopTime="0.00" timeLoss="13.01" rerouteNo="0" devices="tripinfo_84" vType="DEFAULT_VEHTYPE" speedFactor="1.15" vaporized=""/>
    <tripinfo id="21" depart="21.00" departLane="26041277#11_0" departPos="0.39" departSpeed="0.00" departDelay="0.00" arrival="233.00" arrivalLane="1166221863_0" arrivalPos="34.10" arrivalSpeed="8.29" duration="212.00" routeLength="1761.44" waitingTime="18.00" waitingCount="3" stopTime="0.00" timeLoss="49.98" rerouteNo="0" devices="tripinfo_21" vType="DEFAULT_VEHTYPE" speedFactor="1.01" vaporized=""/>
    <tripinfo id="63" depart="63.00" departLane="665788942#2_0" departPos="5.10" departSpeed="0.00" departDelay="0.00" arrival="235.00" arrivalLane="828935024#0_0" arrivalPos="9.38" arrivalSpeed="8.18" duration="172.00" routeLength="1359.31" waitingTime="5.00" waitingCount="2" stopTime="0.00" timeLoss="27.01" rerouteNo="0" devices="tripinfo_63" vType="DEFAULT_VEHTYPE" speedFactor="0.99" vaporized=""/>
    <tripinfo id="136" depart="136.00" departLane="-1116771100_0" departPos="5.10" departSpeed="0.00" departDelay="0.00" arrival="235.00" arrivalLane="396270578_0" arrivalPos="5.61" arrivalSpeed="5.22" duration="99.00" routeLength="610.16" waitingTime="0.00" waitingCount="0" stopTime="0.00" timeLoss="12.22" rerouteNo="0" devices="tripinfo_136" vType="DEFAULT_VEHTYPE" speedFactor="1.12" vaporized=""/>
    <tripinfo id="113" depart="113.00" departLane="24193276_0" departPos="5.10" departSpeed="0.00" departDelay="0.00" arrival="239.00" arrivalLane="828599144_0" arrivalPos="66.69" arrivalSpeed="7.76" duration="126.00" routeLength="752.36" waitingTime="25.00" waitingCount="3" stopTime="0.00" timeLoss="50.28" rerouteNo="0" devices="tripinfo_113" vType="DEFAULT_VEHTYPE" speedFactor="1.01" vaporized=""/>
    <tripinfo id="157" depart="157.00" departLane="190102383#3_0" departPos="0.20" departSpeed="0.00" departDelay="0.00" arrival="239.00" arrivalLane="-825472426#14_0" arrivalPos="0.20" arrivalSpeed="8.80" duration="82.00" routeLength="611.08" waitingTime="1.00" waitingCount="1" stopTime="0.00" timeLoss="12.06" rerouteNo="0" devices="tripinfo_157" vType="DEFAULT_VEHTYPE" speedFactor="1.08" vaporized=""/>
    <tripinfo id="13" depart="13.00" departLane="45450579#1_0" departPos="5.10" departSpeed="0.00" departDelay="0.00" arrival="244.00" arrivalLane="307157805_0" arrivalPos="69.74" arrivalSpeed="14.87" duration="231.00" routeLength="2068.36" waitingTime="57.00" waitingCount="3" stopTime="0.00" timeLoss="87.37" rerouteNo="0" devices="tripinfo_13" vType="DEFAULT_VEHTYPE" speedFactor="1.12" vaporized=""/>
    <tripinfo id="50" depart="50.00" departLane="-23825058#8_0" departPos="5.10" departSpeed="0.00" departDelay="0.00" arrival="246.00" arrivalLane="177210496#3_0" arrivalPos="27.16" arrivalSpeed="6.13" duration="196.00" routeLength="1731.04" waitingTime="7.00" waitingCount="1" stopTime="0.00" timeLoss="36.54" rerouteNo="0" devices="tripinfo_50" vType="DEFAULT_VEHTYPE" speedFactor="0.85" vaporized=""/>
    <tripinfo id="75" depart="75.00" departLane="-340398943#1_0" departPos="5.10" departSpeed="0.00" departDelay="0.00" arrival="250.00" arrivalLane="-317923312#1_0" arrivalPos="56.66" arrivalSpeed="12.49" duration="175.00" routeLength="1015.26" waitingTime="43.00" waitingCount="3" stopTime="0.00" timeLoss="71.42" rerouteNo="0" devices="tripinfo_75" vType="DEFAULT_VEHTYPE" speedFactor="0.98" vaporized=""/>
    <tripinfo id="93" depart="93.00" departLane="832279012#6_0" departPos="5.10" departSpeed="0.00" departDelay="0.00" arrival="251.00" arrivalLane="825472426#9_0" arrivalPos="5.02" arrivalSpeed="6.78" duration="158.00" routeLength="1307.45" waitingTime="15.00" waitingCount="1" stopTime="0.00" timeLoss="33.75" rerouteNo="0" devices="tripinfo_93" vType="DEFAULT_VEHTYPE" speedFactor="0.92" vaporized=""/>
    <tripinfo id="79" depart="79.00" departLane="-40779666#0_0" departPos="5.10" departSpeed="0.00" departDelay="0.00" arrival="255.00" arrivalLane="26386669#6_0" arrivalPos="25.29" arrivalSpeed="8.88" duration="176.00" routeLength="1537.10" waitingTime="0.00" waitingCount="0" stopTime="0.00" timeLoss="34.66" rerouteNo="0" devices="tripinfo_79" vType="DEFAULT_VEHTYPE" speedFactor="1.09" vaporized=""/>
    <tripinfo id="114" depart="114.00" departLane="-307157806#0_0" departPos="5.10" departSpeed="0.00" departDelay="0.00" arrival="256.00" arrivalLane="300358971#5_0" arrivalPos="0.50" arrivalSpeed="8.43" duration="142.00" routeLength="1562.63" waitingTime="0.00" waitingCount="0" stopTime="0.00" timeLoss="23.50" rerouteNo="0" devices="tripinfo_114" vType="DEFAULT_VEHTYPE" speedFactor="1.10" vaporized=""/>
    <tripinfo id="88" depart="88.00" departLane="-300358971#4_0" departPos="5.10" departSpeed="0.00" departDelay="0.00" arrival="257.00" arrivalLane="189125272#1_1" arrivalPos="9.69" arrivalSpeed="7.28" duration="169.00" routeLength="1359.79" waitingTime="30.00" waitingCount="1" stopTime="0.00" timeLoss="52.74" rerouteNo="0" devices="tripinfo_88" vType="DEFAULT_VEHTYPE" speedFactor="1.01" vaporized=""/>
    <tripinfo id="152" depart="152.00" departLane="447662460#8_0" departPos="5.10" departSpeed="0.00" departDelay="0.00" arrival="259.00" arrivalLane="637820941#0_0" arrivalPos="15.97" arrivalSpeed="8.08" duration="107.00" routeLength="1114.04" waitingTime="0.00" waitingCount="0" stopTime="0.00" timeLoss="12.21" rerouteNo="0" devices="tripinfo_152" vType="DEFAULT_VEHTYPE" speedFactor="1.07" vaporized=""/>
    <tripinfo id="41" depart="41.00" departLane="-22431100#1_0" departPos="5.10" departSpeed="0.00" departDelay="0.00" arrival="266.00" arrivalLane="-1494386147_0" arrivalPos="21.36" arrivalSpeed="2.56" duration="225.00" routeLength="1905.08" waitingTime="6.00" waitingCount="1" stopTime="0.00" timeLoss="43.82" rerouteNo="0" devices="tripinfo_41" vType="DEFAULT_VEHTYPE" speedFactor="0.96" vaporized=""/>
    <tripinfo id="224" depart="224.00" departLane="564607399_1" departPos="5.10" departSpeed="0.00" departDelay="0.00" arrival="268.00" arrivalLane="376694602#1_0" arrivalPos="159.55" arrivalSpeed="7.35" duration="44.00" routeLength="370.28" waitingTime="0.00" waitingCount="0" stopTime="0.00" timeLoss="7.01" rerouteNo="0" devices="tripinfo_224" vType="DEFAULT_VEHTYPE" speedFactor="1.02" vaporized=""/>
    <tripinfo id="182" depart="182.00" departLane="-72050011#2_0" departPos="5.10" departSpeed="0.00" departDelay="0.00" arrival="270.00" arrivalLane="24525611_0" arrivalPos="45.48" arrivalSpeed="8.52" duration="88.00" routeLength="689.85" waitingTime="0.00" waitingCount="0" stopTime="0.00" timeLoss="11.72" rerouteNo="0" devices="tripinfo_182" vType="DEFAULT_VEHTYPE" speedFactor="1.03" vaporized=""/>
    <tripinfo id="95" depart="95.00" departLane="22424924#0_0" departPos="5.10" departSpeed="0.00" departDelay="0.00" arrival="271.00" arrivalLane="-30971319#2_0" arrivalPos="69.62" arrivalSpeed="8.76" duration="176.00" routeLength="1375.90" waitingTime="15.00" waitingCount="1" stopTime="0.00" timeLoss="36.85" rerouteNo="0" devices="tripinfo_95" vType="DEFAULT_VEHTYPE" speedFactor="1.06" vaporized=""/>
    <tripinfo id="223" depart="223.00" departLane="25117106_0" departPos="5.10" departSpeed="0.00" departDelay="0.00" arrival="271.00" arrivalLane="28593667#0_0" arrivalPos="22.10" arrivalSpeed="7.76" duration="48.00" routeLength="347.91" waitingTime="0.00" waitingCount="0" stopTime="0.00" timeLoss="7.47" rerouteNo="0" devices="tripinfo_223" vType="DEFAULT_VEHTYPE" speedFactor="1.06" vaporized=""/>
    <tripinfo id="143" depart="143.00" departLane="-25757066_0" departPos="5.10" departSpeed="0.00" departDelay="0.00" arrival="272.00" arrivalLane="-24345907#9_0" arrivalPos="8.51" arrivalSpeed="7.94" duration="129.00" routeLength="1233.76" waitingTime="0.00" waitingCount="0" stopTime="0.00" timeLoss="35.06" rerouteNo="0" devices="tripinfo_143" vType="DEFAULT_VEHTYPE" speedFactor="1.13" vaporized=""/>
    <tripinfo id="165" depart="165.00" departLane="834338011#10_0" departPos="0.20" departSpeed="0.00" departDelay="0.00" arrival="276.00" arrivalLane="-277424371#2_0" arrivalPos="29.29" arrivalSpeed="11.51" duration="111.00" routeLength="630.05" waitingTime="33.00" waitingCount="3" stopTime="0.00" timeLoss="49.35" rerouteNo="0" devices="tripinfo_165" vType="DEFAULT_VEHTYPE" speedFactor="0.91" vaporized=""/>
    <tripinfo id="18" depart="18.00" departLane="-325988699#2_0" departPos="3.39" departSpeed="0.00" departDelay="0.00" arrival="277.00" arrivalLane="-720444271#1_0" arrivalPos="35.94" arrivalSpeed="11.76" duration="259.00" routeLength="1808.38" waitingTime="70.00" waitingCount="3" stopTime="0.00" timeLoss="108.15" rerouteNo="0" devices="tripinfo_18" vType="DEFAULT_VEHTYPE" speedFactor="0.94" vaporized=""/>
    <tripinfo id="47" depart="47.00" departLane="-1155847982#1_0" departPos="0.20" departSpeed="0.00" departDelay="0.00" arrival="278.00" arrivalLane="30326777#0_0" arrivalPos="12.26" arrivalSpeed="6.91" duration="231.00" routeLength="1815.89" waitingTime="45.00" waitingCount="1" stopTime="0.00" timeLoss="71.05" rerouteNo="0" devices="tripinfo_47" vType="DEFAULT_VEHTYPE" speedFactor="0.90" vaporized=""/>
    <tripinfo id="146" depart="146.00" departLane="720444271#0_0" departPos="5.10" departSpeed="0.00" departDelay="0.00" arrival="278.00" arrivalLane="-30788111#0_0" arrivalPos="4.17" arrivalSpeed="11.17" duration="132.00" routeLength="1002.62" waitingTime="22.00" waitingCount="1" stopTime="0.00" timeLoss="38.26" rerouteNo="0" devices="tripinfo_146" vType="DEFAULT_VEHTYPE" speedFactor="0.89" vaporized=""/>
    <tripinfo id="15" depart="15.00" departLane="530563583#4_0" departPos="5.10" departSpeed="0.00" departDelay="0.00" arrival="279.00" arrivalLane="25805358#0_0" arrivalPos="19.51" arrivalSpeed="7.40" duration="264.00" routeLength="1832.61" waitingTime="65.00" waitingCount="2" stopTime="0.00" timeLoss="93.91" rerouteNo="0" devices="tripinfo_15" vType="DEFAULT_VEHTYPE" speedFactor="0.93" vaporized=""/>
    <tripinfo id="25" depart="25.00" departLane="-26372275#1_0" departPos="5.10" departSpeed="0.00" departDelay="0.00" arrival="282.00" arrivalLane="30601136_0" arrivalPos="85.60" arrivalSpeed="4.50" duration="257.00" routeLength="1655.61" waitingTime="29.00" waitingCount="2" stopTime="0.00" timeLoss="72.78" rerouteNo="0" devices="tripinfo_25" vType="DEFAULT_VEHTYPE" speedFactor="0.87" vaporized=""/>
    <tripinfo id="228" depart="228.00" departLane="1473713758_0" departPos="5.10" departSpeed="0.00" departDelay="0.00" arrival="282.00" arrivalLane="310383580#0_0" arrivalPos="8.95" arrivalSpeed="6.72" duration="54.00" routeLength="619.26" waitingTime="0.00" waitingCount="0" stopTime="0.00" timeLoss="11.42" rerouteNo="0" devices="tripinfo_228" vType="DEFAULT_VEHTYPE" speedFactor="1.09" vaporized=""/>
    <tripinfo id="99" depart="99.00" departLane="189125273#0_0" departPos="5.10" departSpeed="0.00" departDelay="0.00" arrival="288.00" arrivalLane="155221402#3_1" arrivalPos="22.15" arrivalSpeed="13.90" duration="189.00" routeLength="1311.27" waitingTime="50.00" waitingCount="4" stopTime="0.00" timeLoss="98.28" rerouteNo="0" devices="tripinfo_99" vType="DEFAULT_VEHTYPE" speedFactor="1.10" vaporized=""/>