<?xml version="1.0" encoding="UTF-8"?>

<!-- generated on 2026-04-23T09:25:35.241967+01:00 by Eclipse SUMO sumo 1.26.0
<sumoConfiguration xmlns:xsi="http://www.w3.org/2001/XMLSchema-instance" xsi:noNamespaceSchemaLocation="http://sumo.dlr.de/xsd/sumoConfiguration.xsd">

    <input>
        <net-file value="C:\Users\USER\Desktop\MiSS\Repo\MiSS_Braess_Paradox\Stage3\net_xml\big_fragment_krakow.net.xml"/>
        <route-files value="C:\Users\USER\Desktop\MiSS\Repo\MiSS_Braess_Paradox\Stage3\net_xml\big_fragment_krakow.rou.xml"/>
        <additional-files value="output_A_pelna_siec/edge_collector.add.xml"/>
    </input>

    <output>
        <summary-output value="output_A_pelna_siec/summary.xml"/>
        <tripinfo-output value="output_A_pelna_siec/tripinfo.xml"/>
    </output>

    <time>
        <begin value="0"/>
        <end value="60800"/>
    </time>

    <processing>
        <time-to-teleport value="300"/>
    </processing>

    <report>
        <no-warnings value="true"/>
        <duration-log.statistics value="true"/>
    </report>

</sumoConfiguration>
-->

<tripinfos xmlns:xsi="http://www.w3.org/2001/XMLSchema-instance" xsi:noNamespaceSchemaLocation="http://sumo.dlr.de/xsd/tripinfo_file.xsd">
    <tripinfo id="veh0" depart="3961.00" departLane="25122978_0" departPos="5.10" departSpeed="0.00" departDelay="0.60" arrival="4166.00" arrivalLane="-1343959021_0" arrivalPos="28.40" arrivalSpeed="8.26" duration="205.00" routeLength="2198.53" waitingTime="38.00" waitingCount="1" stopTime="0.00" timeLoss="55.92" rerouteNo="0" devices="tripinfo_veh0" vType="DEFAULT_VEHTYPE" speedFactor="1.06" vaporized=""/>
    <tripinfo id="veh2" depart="6076.00" departLane="591606416_0" departPos="5.10" departSpeed="0.00" departDelay="0.30" arrival="6934.00" arrivalLane="-25031296_0" arrivalPos="13.20" arrivalSpeed="12.85" duration="858.00" routeLength="7051.41" waitingTime="245.00" waitingCount="9" stopTime="0.00" timeLoss="328.82" rerouteNo="0" devices="tripinfo_veh2" vType="DEFAULT_VEHTYPE" speedFactor="0.94" vaporized=""/>
    <tripinfo id="veh5" depart="8486.00" departLane="221329643#0_0" departPos="5.10" departSpeed="0.00" departDelay="0.60" arrival="9029.00" arrivalLane="101322361#0_0" arrivalPos="11.96" arrivalSpeed="7.59" duration="543.00" routeLength="5455.43" waitingTime="99.00" waitingCount="3" stopTime="0.00" timeLoss="157.17" rerouteNo="0" devices="tripinfo_veh5" vType="DEFAULT_VEHTYPE" speedFactor="1.01" vaporized=""/>
    <tripinfo id="veh1" depart="9745.00" departLane="1022234061_0" departPos="5.10" departSpeed="0.00" departDelay="0.50" arrival="10311.00" arrivalLane="297804536#6_0" arrivalPos="28.00" arrivalSpeed="14.86" duration="566.00" routeLength="5426.27" waitingTime="131.00" waitingCount="6" stopTime="0.00" timeLoss="201.43" rerouteNo="0" devices="tripinfo_veh1" vType="DEFAULT_VEHTYPE" speedFactor="1.08" vaporized=""/>
    <tripinfo id="veh12" depart="12409.00" departLane="455094759#0_0" departPos="5.10" departSpeed="0.00" departDelay="0.40" arrival="12484.00" arrivalLane="24857867_0" arrivalPos="1.54" arrivalSpeed="13.85" duration="75.00" routeLength="533.07" waitingTime="22.00" waitingCount="2" stopTime="0.00" timeLoss="38.48" rerouteNo="0" devices="tripinfo_veh12" vType="DEFAULT_VEHTYPE" speedFactor="1.03" vaporized=""/>
    <tripinfo id="veh1002" depart="13704.00" departLane="1336421108#2_0" departPos="5.10" departSpeed="0.00" departDelay="0.10" arrival="13712.00" arrivalLane="1448274562#0_0" arrivalPos="13.99" arrivalSpeed="13.81" duration="8.00" routeLength="69.79" waitingTime="0.00" waitingCount="0" stopTime="0.00" timeLoss="2.85" rerouteNo="0" devices="tripinfo_veh1002" vType="DEFAULT_VEHTYPE" speedFactor="1.02" vaporized=""/>
    <tripinfo id="veh3778" depart="13605.00" departLane="180640939#0_0" departPos="5.10" departSpeed="0.00" departDelay="0.00" arrival="13734.00" arrivalLane="1326227652_0" arrivalPos="0.20" arrivalSpeed="5.52" duration="129.00" routeLength="1348.04" waitingTime="0.00" waitingCount="0" stopTime="0.00" timeLoss="13.08" rerouteNo="0" devices="tripinfo_veh3778" vType="DEFAULT_VEHTYPE" speedFactor="0.93" vaporized=""/>
    <tripinfo id="veh4991" depart="13728.00" departLane="37828490_0" departPos="5.10" departSpeed="0.00" departDelay="0.60" arrival="13760.00" arrivalLane="533275337#1_3" arrivalPos="2.54" arrivalSpeed="13.44" duration="32.00" routeLength="364.09" waitingTime="0.00" waitingCount="0" stopTime="0.00" timeLoss="4.04" rerouteNo="0" devices="tripinfo_veh4991" vType="DEFAULT_VEHTYPE" speedFactor="0.97" vaporized=""/>
    <tripinfo id="veh6227" depart="13630.00" departLane="19803399_0" departPos="5.10" departSpeed="0.00" departDelay="0.30" arrival="13764.00" arrivalLane="25757043#0_0" arrivalPos="158.38" arrivalSpeed="6.58" duration="134.00" routeLength="1245.64" waitingTime="0.00" waitingCount="0" stopTime="0.00" timeLoss="12.82" rerouteNo="0" devices="tripinfo_veh6227" vType="DEFAULT_VEHTYPE" speedFactor="0.83" vaporized=""/>
    <tripinfo id="veh6968" depart="13700.00" departLane="686500128#2_0" departPos="2.84" departSpeed="0.00" departDelay="0.60" arrival="13861.00" arrivalLane="24787439#1_0" arrivalPos="2.09" arrivalSpeed="15.48" duration="161.00" routeLength="2056.20" waitingTime="7.00" waitingCount="1" stopTime="0.00" timeLoss="34.92" rerouteNo="0" devices="tripinfo_veh6968" vType="DEFAULT_VEHTYPE" speedFactor="1.17" vaporized=""/>
    <tripinfo id="veh2161" depart="13653.00" departLane="557654286#2_0" departPos="2.46" departSpeed="0.00" departDelay="0.20" arrival="13868.00" arrivalLane="1022234063#3_1" arrivalPos="69.37" arrivalSpeed="12.69" duration="215.00" routeLength="1664.26" waitingTime="30.00" waitingCount="1" stopTime="0.00" timeLoss="52.30" rerouteNo="0" devices="tripinfo_veh2161" vType="DEFAULT_VEHTYPE" speedFactor="0.97" vaporized=""/>
    <tripinfo id="veh4386" depart="13844.00" departLane="264018790_0" departPos="5.10" departSpeed="0.00" departDelay="0.00" arrival="13910.00" arrivalLane="19844875#0_1" arrivalPos="12.74" arrivalSpeed="10.95" duration="66.00" routeLength="832.73" waitingTime="6.00" waitingCount="1" stopTime="0.00" timeLoss="18.14" rerouteNo="0" devices="tripinfo_veh4386" vType="DEFAULT_VEHTYPE" speedFactor="1.01" vaporized=""/>
    <tripinfo id="veh1375" depart="13637.00" departLane="-23825058#2_0" departPos="5.10" departSpeed="0.00" departDelay="0.00" arrival="13934.00" arrivalLane="1335318000#0_0" arrivalPos="51.12" arrivalSpeed="12.12" duration="297.00" routeLength="3027.76" waitingTime="10.00" waitingCount="1" stopTime="0.00" timeLoss="43.97" rerouteNo="0" devices="tripinfo_veh1375" vType="DEFAULT_VEHTYPE" speedFactor="0.93" vaporized=""/>
    <tripinfo id="veh5579" depart="13786.00" departLane="153148689_0" departPos="5.10" departSpeed="0.00" departDelay="0.30" arrival="13939.00" arrivalLane="1425309294#0_1" arrivalPos="98.06" arrivalSpeed="14.22" duration="153.00" routeLength="1542.73" waitingTime="31.00" waitingCount="2" stopTime="0.00" timeLoss="50.43" rerouteNo="0" devices="tripinfo_veh5579" vType="DEFAULT_VEHTYPE" speedFactor="1.09" vaporized=""/>
    <tripinfo id="veh5928" depart="13735.00" departLane="149948166_0" departPos="5.10" departSpeed="0.00" departDelay="0.10" arrival="13942.00" arrivalLane="-720375295_0" arrivalPos="19.16" arrivalSpeed="12.58" duration="207.00" routeLength="2181.94" waitingTime="0.00" waitingCount="0" stopTime="0.00" timeLoss="26.23" rerouteNo="0" devices="tripinfo_veh5928" vType="DEFAULT_VEHTYPE" speedFactor="0.99" vaporized=""/>
    <tripinfo id="veh5699" depart="13638.00" departLane="-224025493_0" departPos="5.10" departSpeed="0.00" departDelay="0.80" arrival="13954.00" arrivalLane="-708056660#0_0" arrivalPos="49.73" arrivalSpeed="16.22" duration="316.00" routeLength="2943.37" waitingTime="48.00" waitingCount="2" stopTime="0.00" timeLoss="103.24" rerouteNo="0" devices="tripinfo_veh5699" vType="DEFAULT_VEHTYPE" speedFactor="1.18" vaporized=""/>
    <tripinfo id="veh2649" depart="13706.00" departLane="114324803#1_0" departPos="5.10" departSpeed="0.00" departDelay="0.40" arrival="13954.00" arrivalLane="24787439#0_0" arrivalPos="21.62" arrivalSpeed="15.16" duration="248.00" routeLength="2396.98" waitingTime="52.00" waitingCount="3" stopTime="0.00" timeLoss="90.65" rerouteNo="0" devices="tripinfo_veh2649" vType="DEFAULT_VEHTYPE" speedFactor="1.10" vaporized=""/>
    <tripinfo id="veh926" depart="13885.00" departLane="229227340_0" departPos="5.10" departSpeed="0.00" departDelay="0.30" arrival="13976.00" arrivalLane="215030714#0_1" arrivalPos="122.25" arrivalSpeed="13.78" duration="91.00" routeLength="1134.28" waitingTime="9.00" waitingCount="1" stopTime="0.00" timeLoss="24.95" rerouteNo="0" devices="tripinfo_veh926" vType="DEFAULT_VEHTYPE" speedFactor="1.00" vaporized=""/>
    <tripinfo id="veh4566" depart="13584.00" departLane="217499935#2_0" departPos="5.10" departSpeed="0.00" departDelay="0.70" arrival="13977.00" arrivalLane="82749515_3" arrivalPos="79.28" arrivalSpeed="11.07" duration="393.00" routeLength="3586.56" waitingTime="58.00" waitingCount="3" stopTime="0.00" timeLoss="93.25" rerouteNo="0" devices="tripinfo_veh4566" vType="DEFAULT_VEHTYPE" speedFactor="0.89" vaporized=""/>
    <tripinfo id="veh987" depart="13662.00" departLane="292682449_0" departPos="5.10" departSpeed="0.00" departDelay="0.70" arrival="13977.00" arrivalLane="80526315_1" arrivalPos="166.37" arrivalSpeed="12.32" duration="315.00" routeLength="3404.63" waitingTime="15.00" waitingCount="1" stopTime="0.00" timeLoss="51.86" rerouteNo="0" devices="tripinfo_veh987" vType="DEFAULT_VEHTYPE" speedFactor="0.90" vaporized=""/>
    <tripinfo id="veh23" depart="13578.00" departLane="1183969861_0" departPos="5.10" departSpeed="0.00" departDelay="0.10" arrival="13998.00" arrivalLane="-899128008#3_0" arrivalPos="300.59" arrivalSpeed="14.14" duration="420.00" routeLength="3614.97" waitingTime="125.00" waitingCount="4" stopTime="0.00" timeLoss="173.48" rerouteNo="0" devices="tripinfo_veh23" vType="DEFAULT_VEHTYPE" speedFactor="1.05" vaporized=""/>
    <tripinfo id="veh17" depart="13488.00" departLane="-878860212#0_0" departPos="5.10" departSpeed="0.00" departDelay="0.20" arrival="14000.00" arrivalLane="118304896_0" arrivalPos="181.38" arrivalSpeed="10.62" duration="512.00" routeLength="2988.21" waitingTime="190.00" waitingCount="6" stopTime="0.00" timeLoss="238.70" rerouteNo="0" devices="tripinfo_veh17" vType="DEFAULT_VEHTYPE" speedFactor="0.83" vaporized=""/>
    <tripinfo id="veh2474" depart="13718.00" departLane="1073354276_0" departPos="5.10" departSpeed="0.00" departDelay="0.70" arrival="14001.00" arrivalLane="294883300#0_0" arrivalPos="8.88" arrivalSpeed="8.84" duration="283.00" routeLength="2782.10" waitingTime="22.00" waitingCount="1" stopTime="0.00" timeLoss="55.49" rerouteNo="0" devices="tripinfo_veh2474" vType="DEFAULT_VEHTYPE" speedFactor="1.14" vaporized=""/>
    <tripinfo id="veh3678" depart="13823.00" departLane="216757315#0_0" departPos="5.10" departSpeed="0.00" departDelay="0.10" arrival="14004.00" arrivalLane="217162193_3" arrivalPos="64.42" arrivalSpeed="14.87" duration="181.00" routeLength="1327.57" waitingTime="82.00" waitingCount="3" stopTime="0.00" timeLoss="107.46" rerouteNo="0" devices="tripinfo_veh3678" vType="DEFAULT_VEHTYPE" speedFactor="1.10" vaporized=""/>
    <tripinfo id="veh2819" depart="13891.00" departLane="24787975#0_0" departPos="5.10" departSpeed="0.00" departDelay="0.10" arrival="14008.00" arrivalLane="24787452_0" arrivalPos="10.69" arrivalSpeed="9.92" duration="117.00" routeLength="1415.98" waitingTime="0.00" waitingCount="0" stopTime="0.00" timeLoss="17.46" rerouteNo="0" devices="tripinfo_veh2819" vType="DEFAULT_VEHTYPE" speedFactor="1.03" vaporized=""/>
    <tripinfo id="veh1933" depart="13614.00" departLane="25029837#0_0" departPos="5.10" departSpeed="0.00" departDelay="0.70" arrival="14009.00" arrivalLane="37832001#1_0" arrivalPos="70.73" arrivalSpeed="14.98" duration="395.00" routeLength="3297.88" waitingTime="132.00" waitingCount="3" stopTime="0.00" timeLoss="172.62" rerouteNo="0" devices="tripinfo_veh1933" vType="DEFAULT_VEHTYPE" speedFactor="1.16" vaporized=""/>
    <tripinfo id="veh6526" depart="13773.00" departLane="-30788110#3_0" departPos="5.10" departSpeed="0.00" departDelay="0.90" arrival="14009.00" arrivalLane="878860212#1_0" arrivalPos="34.56" arrivalSpeed="10.13" duration="236.00" routeLength="1820.45" waitingTime="57.00" waitingCount="3" stopTime="0.00" timeLoss="88.57" rerouteNo="0" devices="tripinfo_veh6526" vType="DEFAULT_VEHTYPE" speedFactor="0.96" vaporized=""/>
    <tripinfo id="veh2290" depart="13643.00" departLane="24821281#0_0" departPos="5.10" departSpeed="0.00" departDelay="0.70" arrival="14012.00" arrivalLane="368325412_1" arrivalPos="74.82" arrivalSpeed="15.16" duration="369.00" routeLength="4337.49" waitingTime="39.00" waitingCount="2" stopTime="0.00" timeLoss="78.83" rerouteNo="0" devices="tripinfo_veh2290" vType="DEFAULT_VEHTYPE" speedFactor="1.17" vaporized=""/>
    <tripinfo id="veh5826" depart="13840.00" departLane="359671120#0_0" departPos="5.10" departSpeed="0.00" departDelay="0.90" arrival="14014.00" arrivalLane="1024311351_0" arrivalPos="18.54" arrivalSpeed="10.63" duration="174.00" routeLength="2270.59" waitingTime="0.00" waitingCount="0" stopTime="0.00" timeLoss="16.50" rerouteNo="0" devices="tripinfo_veh5826" vType="DEFAULT_VEHTYPE" speedFactor="1.07" vaporized=""/>
    <tripinfo id="veh2210" depart="13755.00" departLane="25944548_0" departPos="5.10" departSpeed="0.00" departDelay="0.10" arrival="14017.00" arrivalLane="216757313_0" arrivalPos="25.20" arrivalSpeed="13.19" duration="262.00" routeLength="2228.95" waitingTime="58.00" waitingCount="4" stopTime="0.00" timeLoss="96.21" rerouteNo="0" devices="tripinfo_veh2210" vType="DEFAULT_VEHTYPE" speedFactor="1.02" vaporized=""/>
    <tripinfo id="veh448" depart="13639.00" departLane="458909129#2_0" departPos="5.10" departSpeed="0.00" departDelay="0.30" arrival="14034.00" arrivalLane="187102376#0_1" arrivalPos="67.83" arrivalSpeed="15.24" duration="395.00" routeLength="4364.15" waitingTime="80.00" waitingCount="4" stopTime="0.00" timeLoss="122.56" rerouteNo="0" devices="tripinfo_veh448" vType="DEFAULT_VEHTYPE" speedFactor="1.15" vaporized=""/>
    <tripinfo id="veh2184" depart="13940.00" departLane="19803498_0" departPos="5.10" departSpeed="0.00" departDelay="0.00" arrival="14035.00" arrivalLane="187685308_2" arrivalPos="549.37" arrivalSpeed="21.17" duration="95.00" routeLength="1018.58" waitingTime="17.00" waitingCount="1" stopTime="0.00" timeLoss="32.93" rerouteNo="0" devices="tripinfo_veh2184" vType="DEFAULT_VEHTYPE" speedFactor="1.13" vaporized=""/>
    <tripinfo id="veh3059" depart="13715.00" departLane="195031597_0" departPos="5.10" departSpeed="0.00" departDelay="0.80" arrival="14041.00" arrivalLane="158256247#10_0" arrivalPos="93.31" arrivalSpeed="7.95" duration="326.00" routeLength="2898.28" waitingTime="48.00" waitingCount="2" stopTime="0.00" timeLoss="86.97" rerouteNo="0" devices="tripinfo_veh3059" vType="DEFAULT_VEHTYPE" speedFactor="1.00" vaporized=""/>
    <tripinfo id="veh1240" depart="13608.00" departLane="1460721167_0" departPos="5.10" departSpeed="0.00" departDelay="0.20" arrival="14042.00" arrivalLane="686500129#1_0" arrivalPos="8.08" arrivalSpeed="6.00" duration="434.00" routeLength="3940.78" waitingTime="67.00" waitingCount="3" stopTime="0.00" timeLoss="108.39" rerouteNo="0" devices="tripinfo_veh1240" vType="DEFAULT_VEHTYPE" speedFactor="0.88" vaporized=""/>
    <tripinfo id="veh161" depart="13730.00" departLane="31764253_0" departPos="5.10" departSpeed="0.00" departDelay="0.60" arrival="14043.00" arrivalLane="5095973#1_0" arrivalPos="7.98" arrivalSpeed="14.99" duration="313.00" routeLength="3046.65" waitingTime="24.00" waitingCount="1" stopTime="0.00" timeLoss="80.57" rerouteNo="0" devices="tripinfo_veh161" vType="DEFAULT_VEHTYPE" speedFactor="1.08" vaporized=""/>
    <tripinfo id="veh6137" depart="13874.00" departLane="25117109#1_0" departPos="5.10" departSpeed="0.00" departDelay="0.00" arrival="14052.00" arrivalLane="552854765#1_1" arrivalPos="25.18" arrivalSpeed="20.94" duration="178.00" routeLength="1976.33" waitingTime="36.00" waitingCount="3" stopTime="0.00" timeLoss="65.25" rerouteNo="0" devices="tripinfo_veh6137" vType="DEFAULT_VEHTYPE" speedFactor="1.10" vaporized=""/>
    <tripinfo id="veh6056" depart="13613.00" departLane="-582339167_0" departPos="5.10" departSpeed="0.00" departDelay="0.00" arrival="14053.00" arrivalLane="65371796_0" arrivalPos="25.29" arrivalSpeed="11.55" duration="440.00" routeLength="3883.99" waitingTime="61.00" waitingCount="4" stopTime="0.00" timeLoss="107.51" rerouteNo="0" devices="tripinfo_veh6056" vType="DEFAULT_VEHTYPE" speedFactor="0.94" vaporized=""/>
    <tripinfo id="veh4440" depart="13633.00" departLane="-345738495#2_0" departPos="5.10" departSpeed="0.00" departDelay="0.90" arrival="14054.00" arrivalLane="299714315#1_0" arrivalPos="223.29" arrivalSpeed="12.55" duration="421.00" routeLength="3618.03" waitingTime="32.00" waitingCount="1" stopTime="0.00" timeLoss="68.57" rerouteNo="0" devices="tripinfo_veh4440" vType="DEFAULT_VEHTYPE" speedFactor="0.92" vaporized=""/>
    <tripinfo id="veh7388" depart="13717.00" departLane="918558383_0" departPos="5.10" departSpeed="0.00" departDelay="0.30" arrival="14057.00" arrivalLane="199537368_0" arrivalPos="44.58" arrivalSpeed="11.60" duration="340.00" routeLength="2463.16" waitingTime="123.00" waitingCount="4" stopTime="0.00" timeLoss="161.89" rerouteNo="0" devices="tripinfo_veh7388" vType="DEFAULT_VEHTYPE" speedFactor="0.90" vaporized=""/>
    <tripinfo id="veh2534" depart="13718.00" departLane="713092111_0" departPos="5.10" departSpeed="0.00" departDelay="0.00" arrival="14058.00" arrivalLane="-431445478#1_0" arrivalPos="44.05" arrivalSpeed="13.20" duration="340.00" routeLength="3979.78" waitingTime="35.00" waitingCount="2" stopTime="0.00" timeLoss="64.77" rerouteNo="0" devices="tripinfo_veh2534" vType="DEFAULT_VEHTYPE" speedFactor="1.02" vaporized=""/>
    <tripinfo id="veh332" depart="13688.00" departLane="187685308_0" departPos="5.10" departSpeed="0.00" departDelay="0.00" arrival="14059.00" arrivalLane="216640461#1_0" arrivalPos="197.25" arrivalSpeed="13.85" duration="371.00" routeLength="2216.64" waitingTime="188.00" waitingCount="4" stopTime="0.00" timeLoss="220.56" rerouteNo="0" devices="tripinfo_veh332" vType="DEFAULT_VEHTYPE" speedFactor="1.00" vaporized=""/>
    <tripinfo id="veh2949" depart="13818.00" departLane="-23257508_0" departPos="1.46" departSpeed="0.00" departDelay="0.00" arrival="14066.00" arrivalLane="237025647#3_1" arrivalPos="57.89" arrivalSpeed="13.50" duration="248.00" routeLength="2473.13" waitingTime="54.00" waitingCount="3" stopTime="0.00" timeLoss="85.70" rerouteNo="0" devices="tripinfo_veh2949" vType="DEFAULT_VEHTYPE" speedFactor="1.06" vaporized=""/>
    <tripinfo id="veh2996" depart="14024.00" departLane="315156048_0" departPos="5.10" departSpeed="0.00" departDelay="0.50" arrival="14072.00" arrivalLane="28815855#0_1" arrivalPos="25.48" arrivalSpeed="14.08" duration="48.00" routeLength="738.37" waitingTime="0.00" waitingCount="0" stopTime="0.00" timeLoss="6.16" rerouteNo="0" devices="tripinfo_veh2996" vType="DEFAULT_VEHTYPE" speedFactor="1.10" vaporized=""/>
    <tripinfo id="veh5458" depart="13872.00" departLane="-564607400_0" departPos="5.10" departSpeed="0.00" departDelay="0.80" arrival="14075.00" arrivalLane="1335317999_0" arrivalPos="4.73" arrivalSpeed="13.39" duration="203.00" routeLength="2524.70" waitingTime="0.00" waitingCount="0" stopTime="0.00" timeLoss="19.36" rerouteNo="0" devices="tripinfo_veh5458" vType="DEFAULT_VEHTYPE" speedFactor="1.01" vaporized=""/>
    <tripinfo id="veh539" depart="13776.00" departLane="25071851_0" departPos="5.10" departSpeed="0.00" departDelay="0.20" arrival="14081.00" arrivalLane="1317429103_0" arrivalPos="47.58" arrivalSpeed="13.20" duration="305.00" routeLength="3789.71" waitingTime="33.00" waitingCount="1" stopTime="0.00" timeLoss="56.39" rerouteNo="0" devices="tripinfo_veh539" vType="DEFAULT_VEHTYPE" speedFactor="1.03" vaporized=""/>
    <tripinfo id="veh2213" depart="13787.00" departLane="29285995#1_0" departPos="5.10" departSpeed="0.00" departDelay="0.40" arrival="14081.00" arrivalLane="294809238#0_0" arrivalPos="97.24" arrivalSpeed="7.90" duration="294.00" routeLength="1554.82" waitingTime="158.00" waitingCount="4" stopTime="0.00" timeLoss="186.10" rerouteNo="0" devices="tripinfo_veh2213" vType="DEFAULT_VEHTYPE" speedFactor="1.03" vaporized=""/>
    <tripinfo id="veh7754" depart="13635.00" departLane="216757310_0" departPos="5.10" departSpeed="0.00" departDelay="0.60" arrival="14086.00" arrivalLane="264018795_0" arrivalPos="148.14" arrivalSpeed="18.30" duration="451.00" routeLength="3391.16" waitingTime="135.00" waitingCount="3" stopTime="0.00" timeLoss="177.26" rerouteNo="0" devices="tripinfo_veh7754" vType="DEFAULT_VEHTYPE" speedFactor="0.95" vaporized=""/>
    <tripinfo id="veh4910" depart="13813.00" departLane="264018797_0" departPos="5.10" departSpeed="0.00" departDelay="0.30" arrival="14095.00" arrivalLane="1335317998_0" arrivalPos="9.56" arrivalSpeed="11.82" duration="282.00" routeLength="2526.93" waitingTime="68.00" waitingCount="2" stopTime="0.00" timeLoss="95.72" rerouteNo="0" devices="tripinfo_veh4910" vType="DEFAULT_VEHTYPE" speedFactor="0.89" vaporized=""/>
    <tripinfo id="veh1972" depart="13585.00" departLane="1435150636#0_0" departPos="5.10" departSpeed="0.00" departDelay="0.00" arrival="14097.00" arrivalLane="24787441_0" arrivalPos="165.85" arrivalSpeed="12.01" duration="512.00" routeLength="4709.84" waitingTime="108.00" waitingCount="4" stopTime="0.00" timeLoss="158.35" rerouteNo="0" devices="tripinfo_veh1972" vType="DEFAULT_VEHTYPE" speedFactor="0.94" vaporized=""/>
    <tripinfo id="veh982" depart="13834.00" departLane="80526315_1" departPos="5.10" departSpeed="0.00" departDelay="0.50" arrival="14099.00" arrivalLane="37828490_4" arrivalPos="26.56" arrivalSpeed="13.12" duration="265.00" routeLength="2341.60" waitingTime="50.00" waitingCount="3" stopTime="0.00" timeLoss="91.03" rerouteNo="0" devices="tripinfo_veh982" vType="DEFAULT_VEHTYPE" speedFactor="0.97" vaporized=""/>
    <tripinfo id="veh2181" depart="13928.00" departLane="945765464_0" departPos="5.10" departSpeed="0.00" departDelay="0.20" arrival="14099.00" arrivalLane="759771315#1_1" arrivalPos="0.20" arrivalSpeed="10.58" duration="171.00" routeLength="1841.88" waitingTime="40.00" waitingCount="2" stopTime="0.00" timeLoss="65.72" rerouteNo="0" devices="tripinfo_veh2181" vType="DEFAULT_VEHTYPE" speedFactor="1.04" vaporized=""/>
    <tripinfo id="veh3651" depart="13823.00" departLane="-30788110#0_0" departPos="4.40" departSpeed="0.00" departDelay="0.20" arrival="14105.00" arrivalLane="153148684#0_1" arrivalPos="18.57" arrivalSpeed="18.48" duration="282.00" routeLength="3173.11" waitingTime="47.00" waitingCount="2" stopTime="0.00" timeLoss="81.29" rerouteNo="0" devices="tripinfo_veh3651" vType="DEFAULT_VEHTYPE" speedFactor="1.12" vaporized=""/>
    <tripinfo id="veh4704" depart="13599.00" departLane="366458331#0_0" departPos="5.10" departSpeed="0.00" departDelay="0.20" arrival="14108.00" arrivalLane="37829704_0" arrivalPos="167.48" arrivalSpeed="20.84" duration="509.00" routeLength="5523.73" waitingTime="72.00" waitingCount="5" stopTime="0.00" timeLoss="146.49" rerouteNo="0" devices="tripinfo_veh4704" vType="DEFAULT_VEHTYPE" speedFactor="1.12" vaporized=""/>
    <tripinfo id="veh4108" depart="13885.00" departLane="138750246_0" departPos="5.10" departSpeed="0.00" departDelay="0.70" arrival="14109.00" arrivalLane="-720375295_0" arrivalPos="19.16" arrivalSpeed="15.36" duration="224.00" routeLength="2985.54" waitingTime="9.00" waitingCount="1" stopTime="0.00" timeLoss="43.97" rerouteNo="0" devices="tripinfo_veh4108" vType="DEFAULT_VEHTYPE" speedFactor="1.18" vaporized=""/>
    <tripinfo id="veh4803" depart="13834.00" departLane="25071851_0" departPos="5.10" departSpeed="0.00" departDelay="0.60" arrival="14111.00" arrivalLane="26342686#0_0" arrivalPos="85.08" arrivalSpeed="6.77" duration="277.00" routeLength="3093.42" waitingTime="0.00" waitingCount="0" stopTime="0.00" timeLoss="22.15" rerouteNo="0" devices="tripinfo_veh4803" vType="DEFAULT_VEHTYPE" speedFactor="0.96" vaporized=""/>
    <tripinfo id="veh225" depart="13646.00" departLane="24788596#0_0" departPos="5.10" departSpeed="0.00" departDelay="0.70" arrival="14114.00" arrivalLane="299714315#1_0" arrivalPos="223.29" arrivalSpeed="12.79" duration="468.00" routeLength="4260.09" waitingTime="75.00" waitingCount="3" stopTime="0.00" timeLoss="124.43" rerouteNo="0" devices="tripinfo_veh225" vType="DEFAULT_VEHTYPE" speedFactor="0.99" vaporized=""/>
    <tripinfo id="veh6886" depart="13908.00" departLane="-431445483_0" departPos="5.10" departSpeed="0.00" departDelay="0.80" arrival="14115.00" arrivalLane="277117085#0_1" arrivalPos="70.30" arrivalSpeed="14.34" duration="207.00" routeLength="1535.37" waitingTime="70.00" waitingCount="3" stopTime="0.00" timeLoss="99.74" rerouteNo="0" devices="tripinfo_veh6886" vType="DEFAULT_VEHTYPE" speedFactor="1.12" vaporized=""/>
    <tripinfo id="veh4274" depart="13845.00" departLane="830830066#0_0" departPos="5.10" departSpeed="0.00" departDelay="0.30" arrival="14116.00" arrivalLane="-218323982#0_0" arrivalPos="85.32" arrivalSpeed="13.68" duration="271.00" routeLength="2783.53" waitingTime="51.00" waitingCount="2" stopTime="0.00" timeLoss="84.60" rerouteNo="0" devices="tripinfo_veh4274" vType="DEFAULT_VEHTYPE" speedFactor="1.03" vaporized=""/>
    <tripinfo id="veh5745" depart="13731.00" departLane="-26403142#1_0" departPos="5.10" departSpeed="0.00" departDelay="0.80" arrival="14117.00" arrivalLane="205108002#1_0" arrivalPos="170.11" arrivalSpeed="15.24" duration="386.00" routeLength="3671.83" waitingTime="57.00" waitingCount="3" stopTime="0.00" timeLoss="98.21" rerouteNo="0" devices="tripinfo_veh5745" vType="DEFAULT_VEHTYPE" speedFactor="1.12" vaporized=""/>
    <tripinfo id="veh2388" depart="13938.00" departLane="25117109#1_0" departPos="5.10" departSpeed="0.00" departDelay="0.10" arrival="14119.00" arrivalLane="-832551863#1_0" arrivalPos="14.60" arrivalSpeed="7.37" duration="181.00" routeLength="1242.56" waitingTime="23.00" waitingCount="2" stopTime="0.00" timeLoss="47.89" rerouteNo="0" devices="tripinfo_veh2388" vType="DEFAULT_VEHTYPE" speedFactor="0.94" vaporized=""/>
    <tripinfo id="veh2442" depart="13588.00" departLane="153148685_1" departPos="5.10" departSpeed="0.00" departDelay="0.90" arrival="14123.00" arrivalLane="37829704_2" arrivalPos="167.48" arrivalSpeed="20.10" duration="535.00" routeLength="4742.10" waitingTime="191.00" waitingCount="5" stopTime="0.00" timeLoss="242.37" rerouteNo="0" devices="tripinfo_veh2442" vType="DEFAULT_VEHTYPE" speedFactor="1.09" vaporized=""/>
    <tripinfo id="veh6476" depart="14008.00" departLane="82751707#1_0" departPos="5.10" departSpeed="0.00" departDelay="0.00" arrival="14126.00" arrivalLane="1415138984_0" arrivalPos="161.14" arrivalSpeed="12.09" duration="118.00" routeLength="1350.99" waitingTime="0.00" waitingCount="0" stopTime="0.00" timeLoss="13.57" rerouteNo="0" devices="tripinfo_veh6476" vType="DEFAULT_VEHTYPE" speedFactor="0.96" vaporized=""/>
    <tripinfo id="veh1836" depart="13808.00" departLane="19842465_0" departPos="5.10" departSpeed="0.00" departDelay="0.90" arrival="14128.00" arrivalLane="25116633_0" arrivalPos="13.14" arrivalSpeed="13.02" duration="320.00" routeLength="2323.14" waitingTime="123.00" waitingCount="4" stopTime="0.00" timeLoss="158.49" rerouteNo="0" devices="tripinfo_veh1836" vType="DEFAULT_VEHTYPE" speedFactor="1.00" vaporized=""/>
    <tripinfo id="veh578" depart="13655.00" departLane="264018795_0" departPos="5.10" departSpeed="0.00" departDelay="0.80" arrival="14136.00" arrivalLane="-1448274562#1_0" arrivalPos="25.80" arrivalSpeed="13.73" duration="481.00" routeLength="3972.83" waitingTime="166.00" waitingCount="6" stopTime="0.00" timeLoss="222.88" rerouteNo="0" devices="tripinfo_veh578" vType="DEFAULT_VEHTYPE" speedFactor="1.18" vaporized=""/>
    <tripinfo id="veh2573" depart="13681.00" departLane="221329657_0" departPos="5.10" departSpeed="0.00" departDelay="0.70" arrival="14140.00" arrivalLane="1088129792#0_0" arrivalPos="38.44" arrivalSpeed="13.51" duration="459.00" routeLength="4425.23" waitingTime="71.00" waitingCount="4" stopTime="0.00" timeLoss="141.74" rerouteNo="0" devices="tripinfo_veh2573" vType="DEFAULT_VEHTYPE" speedFactor="1.04" vaporized=""/>
    <tripinfo id="veh118" depart="13861.00" departLane="832551863#1_0" departPos="5.10" departSpeed="0.00" departDelay="0.50" arrival="14143.00" arrivalLane="-637909741_0" arrivalPos="7.57" arrivalSpeed="6.44" duration="282.00" routeLength="1491.59" waitingTime="78.00" waitingCount="3" stopTime="0.00" timeLoss="117.23" rerouteNo="0" devices="tripinfo_veh118" vType="DEFAULT_VEHTYPE" speedFactor="0.93" vaporized=""/>
    <tripinfo id="veh3714" depart="14053.00" departLane="118304896_0" departPos="5.10" departSpeed="0.00" departDelay="0.10" arrival="14151.00" arrivalLane="24559263_1" arrivalPos="55.75" arrivalSpeed="13.77" duration="98.00" routeLength="1172.60" waitingTime="0.00" waitingCount="0" stopTime="0.00" timeLoss="10.74" rerouteNo="0" devices="tripinfo_veh3714" vType="DEFAULT_VEHTYPE" speedFactor="1.00" vaporized=""/>
    <tripinfo id="veh2762" depart="13906.00" departLane="-295147071_0" departPos="5.10" departSpeed="0.00" departDelay="0.20" arrival="14153.00" arrivalLane="31764158#0_0" arrivalPos="176.80" arrivalSpeed="13.82" duration="247.00" routeLength="2417.07" waitingTime="4.00" waitingCount="1" stopTime="0.00" timeLoss="34.59" rerouteNo="0" devices="tripinfo_veh2762" vType="DEFAULT_VEHTYPE" speedFactor="1.03" vaporized=""/>