<?xml version="1.0" encoding="UTF-8"?>

<!-- generated on 2026-04-23T09:25:38.699584+01:00 by Eclipse SUMO sumo 1.26.0
<sumoConfiguration xmlns:xsi="http://www.w3.org/2001/XMLSchema-instance" xsi:noNamespaceSchemaLocation="http://sumo.dlr.de/xsd/sumoConfiguration.xsd">

    <input>
        <net-file value="C:\Users\USER\Desktop\MiSS\Repo\MiSS_Braess_Paradox\Stage3\net_xml\big_fragment_krakow_without_edge.net.xml"/>
        <route-files value="C:\Users\USER\Desktop\MiSS\Repo\MiSS_Braess_Paradox\Stage3\net_xml\big_fragment_krakow_without_edge.rou.xml"/>
        <additional-files value="output_B_bez_krawedzi/edge_collector.add.xml"/>
    </input>

    <output>
        <summary-output value="output_B_bez_krawedzi/summary.xml"/>
        <tripinfo-output value="output_B_bez_krawedzi/tripinfo.xml"/>
    </output>

    <time>
        <begin value="0"/>
        <end value="60800"/>
    </time>

    <processing>
        <time-to-teleport value="300"/>
    </processing>

    <report>
        <no-warnings value="true"/>
        <duration-log.statistics value="true"/>
    </report>

</sumoConfiguration>
-->

<tripinfos xmlns:xsi="http://www.w3.org/2001/XMLSchema-instance" xsi:noNamespaceSchemaLocation="http://sumo.dlr.de/xsd/tripinfo_file.xsd">
    <tripinfo id="veh0" depart="3961.00" departLane="25122978_0" departPos="5.10" departSpeed="0.00" departDelay="0.60" arrival="4166.00" arrivalLane="-1343959021_0" arrivalPos="28.40" arrivalSpeed="8.19" duration="205.00" routeLength="2198.53" waitingTime="39.00" waitingCount="1" stopTime="0.00" timeLoss="56.21" rerouteNo="0" devices="tripinfo_veh0" vType="DEFAULT_VEHTYPE" speedFactor="1.06" vaporized=""/>
    <tripinfo id="veh2" depart="6076.00" departLane="591606416_0" departPos="5.10" departSpeed="0.00" departDelay="0.30" arrival="6936.00" arrivalLane="-25031296_0" arrivalPos="13.20" arrivalSpeed="11.95" duration="860.00" routeLength="7051.41" waitingTime="239.00" waitingCount="9" stopTime="0.00" timeLoss="330.14" rerouteNo="0" devices="tripinfo_veh2" vType="DEFAULT_VEHTYPE" speedFactor="0.94" vaporized=""/>
    <tripinfo id="veh3" depart="7278.00" departLane="-1435150630#0_0" departPos="5.10" departSpeed="0.00" departDelay="0.90" arrival="7688.00" arrivalLane="-978174227_0" arrivalPos="102.42" arrivalSpeed="7.94" duration="410.00" routeLength="3246.63" waitingTime="114.00" waitingCount="4" stopTime="0.00" timeLoss="154.56" rerouteNo="0" devices="tripinfo_veh3" vType="DEFAULT_VEHTYPE" speedFactor="1.01" vaporized=""/>
    <tripinfo id="veh5" depart="8486.00" departLane="221329643#0_0" departPos="5.10" departSpeed="0.00" departDelay="0.60" arrival="9006.00" arrivalLane="101322361#0_0" arrivalPos="11.96" arrivalSpeed="7.94" duration="520.00" routeLength="5455.50" waitingTime="95.00" waitingCount="4" stopTime="0.00" timeLoss="159.89" rerouteNo="0" devices="tripinfo_veh5" vType="DEFAULT_VEHTYPE" speedFactor="1.08" vaporized=""/>
    <tripinfo id="veh1" depart="9745.00" departLane="1022234061_0" departPos="5.10" departSpeed="0.00" departDelay="0.50" arrival="10313.00" arrivalLane="297804536#6_0" arrivalPos="28.00" arrivalSpeed="13.87" duration="568.00" routeLength="5426.27" waitingTime="117.00" waitingCount="6" stopTime="0.00" timeLoss="184.07" rerouteNo="0" devices="tripinfo_veh1" vType="DEFAULT_VEHTYPE" speedFactor="1.03" vaporized=""/>
    <tripinfo id="veh12" depart="12409.00" departLane="455094759#0_0" departPos="5.10" departSpeed="0.00" departDelay="0.40" arrival="12487.00" arrivalLane="24857867_0" arrivalPos="1.54" arrivalSpeed="10.53" duration="78.00" routeLength="533.07" waitingTime="19.00" waitingCount="2" stopTime="0.00" timeLoss="33.42" rerouteNo="0" devices="tripinfo_veh12" vType="DEFAULT_VEHTYPE" speedFactor="0.83" vaporized=""/>
    <tripinfo id="veh1002" depart="13704.00" departLane="1336421108#2_0" departPos="5.10" departSpeed="0.00" departDelay="0.10" arrival="13713.00" arrivalLane="1448274562#0_0" arrivalPos="13.99" arrivalSpeed="11.08" duration="9.00" routeLength="69.79" waitingTime="0.00" waitingCount="0" stopTime="0.00" timeLoss="2.78" rerouteNo="0" devices="tripinfo_veh1002" vType="DEFAULT_VEHTYPE" speedFactor="0.85" vaporized=""/>
    <tripinfo id="veh4991" depart="13728.00" departLane="37828490_0" departPos="5.10" departSpeed="0.00" departDelay="0.60" arrival="13756.00" arrivalLane="533275337#1_3" arrivalPos="2.54" arrivalSpeed="14.93" duration="28.00" routeLength="364.09" waitingTime="0.00" waitingCount="0" stopTime="0.00" timeLoss="4.70" rerouteNo="0" devices="tripinfo_veh4991" vType="DEFAULT_VEHTYPE" speedFactor="1.14" vaporized=""/>
    <tripinfo id="veh6056" depart="13613.00" departLane="-572140621#1_0" departPos="0.31" departSpeed="0.00" departDelay="0.00" arrival="13839.00" arrivalLane="65371796_0" arrivalPos="25.29" arrivalSpeed="13.43" duration="226.00" routeLength="2441.14" waitingTime="26.00" waitingCount="1" stopTime="0.00" timeLoss="48.39" rerouteNo="0" devices="tripinfo_veh6056" vType="DEFAULT_VEHTYPE" speedFactor="1.16" vaporized=""/>
    <tripinfo id="veh3059" depart="13715.00" departLane="192081933#0_0" departPos="5.10" departSpeed="0.00" departDelay="0.80" arrival="13852.00" arrivalLane="157868808_0" arrivalPos="117.69" arrivalSpeed="14.08" duration="137.00" routeLength="1670.16" waitingTime="1.00" waitingCount="1" stopTime="0.00" timeLoss="21.11" rerouteNo="0" devices="tripinfo_veh3059" vType="DEFAULT_VEHTYPE" speedFactor="1.10" vaporized=""/>
    <tripinfo id="veh2161" depart="13653.00" departLane="557654286#2_0" departPos="2.46" departSpeed="0.00" departDelay="0.20" arrival="13869.00" arrivalLane="1022234063#3_1" arrivalPos="69.37" arrivalSpeed="13.41" duration="216.00" routeLength="1664.25" waitingTime="28.00" waitingCount="1" stopTime="0.00" timeLoss="52.10" rerouteNo="0" devices="tripinfo_veh2161" vType="DEFAULT_VEHTYPE" speedFactor="0.97" vaporized=""/>
    <tripinfo id="veh6967" depart="13651.00" departLane="887288446#0_0" departPos="5.10" departSpeed="0.00" departDelay="0.00" arrival="13870.00" arrivalLane="669428181_0" arrivalPos="20.07" arrivalSpeed="19.31" duration="219.00" routeLength="1583.96" waitingTime="69.00" waitingCount="4" stopTime="0.00" timeLoss="107.17" rerouteNo="0" devices="tripinfo_veh6967" vType="DEFAULT_VEHTYPE" speedFactor="1.02" vaporized=""/>
    <tripinfo id="veh6906" depart="13736.00" departLane="-1070812772_0" departPos="5.10" departSpeed="0.00" departDelay="0.60" arrival="13877.00" arrivalLane="25117109#0_2" arrivalPos="2.75" arrivalSpeed="12.94" duration="141.00" routeLength="1759.01" waitingTime="3.00" waitingCount="1" stopTime="0.00" timeLoss="15.91" rerouteNo="0" devices="tripinfo_veh6906" vType="DEFAULT_VEHTYPE" speedFactor="1.02" vaporized=""/>
    <tripinfo id="veh225" depart="13646.00" departLane="24789911_0" departPos="5.10" departSpeed="0.00" departDelay="0.70" arrival="13883.00" arrivalLane="299714315#1_0" arrivalPos="223.29" arrivalSpeed="12.71" duration="237.00" routeLength="1536.03" waitingTime="57.00" waitingCount="2" stopTime="0.00" timeLoss="83.35" rerouteNo="0" devices="tripinfo_veh225" vType="DEFAULT_VEHTYPE" speedFactor="0.99" vaporized=""/>
    <tripinfo id="veh1375" depart="13637.00" departLane="-23825058#2_0" departPos="5.10" departSpeed="0.00" departDelay="0.00" arrival="13888.00" arrivalLane="1335318000#0_0" arrivalPos="51.12" arrivalSpeed="16.03" duration="251.00" routeLength="3027.76" waitingTime="24.00" waitingCount="1" stopTime="0.00" timeLoss="49.28" rerouteNo="0" devices="tripinfo_veh1375" vType="DEFAULT_VEHTYPE" speedFactor="1.18" vaporized=""/>
    <tripinfo id="veh4386" depart="13844.00" departLane="264018791_0" departPos="5.10" departSpeed="0.00" departDelay="0.00" arrival="13910.00" arrivalLane="19844875#0_1" arrivalPos="12.74" arrivalSpeed="11.83" duration="66.00" routeLength="405.92" waitingTime="27.00" waitingCount="1" stopTime="0.00" timeLoss="37.75" rerouteNo="0" devices="tripinfo_veh4386" vType="DEFAULT_VEHTYPE" speedFactor="0.96" vaporized=""/>
    <tripinfo id="veh5928" depart="13735.00" departLane="149948166_0" departPos="5.10" departSpeed="0.00" departDelay="0.10" arrival="13920.00" arrivalLane="-720375295_0" arrivalPos="19.16" arrivalSpeed="14.53" duration="185.00" routeLength="2181.94" waitingTime="0.00" waitingCount="0" stopTime="0.00" timeLoss="26.39" rerouteNo="0" devices="tripinfo_veh5928" vType="DEFAULT_VEHTYPE" speedFactor="1.12" vaporized=""/>
    <tripinfo id="veh5579" depart="13786.00" departLane="153148689_0" departPos="5.10" departSpeed="0.00" departDelay="0.30" arrival="13957.00" arrivalLane="1425225677#2_1" arrivalPos="79.41" arrivalSpeed="13.58" duration="171.00" routeLength="1719.63" waitingTime="25.00" waitingCount="2" stopTime="0.00" timeLoss="44.32" rerouteNo="0" devices="tripinfo_veh5579" vType="DEFAULT_VEHTYPE" speedFactor="0.98" vaporized=""/>
    <tripinfo id="veh7955" depart="13712.00" departLane="564607400_0" departPos="5.10" departSpeed="0.00" departDelay="0.00" arrival="13963.00" arrivalLane="-1219636744#1_0" arrivalPos="65.99" arrivalSpeed="5.03" duration="251.00" routeLength="2107.34" waitingTime="45.00" waitingCount="2" stopTime="0.00" timeLoss="79.90" rerouteNo="0" devices="tripinfo_veh7955" vType="DEFAULT_VEHTYPE" speedFactor="1.02" vaporized=""/>
    <tripinfo id="veh4566" depart="13584.00" departLane="217499935#0_0" departPos="5.10" departSpeed="0.00" departDelay="0.70" arrival="13973.00" arrivalLane="82749515_2" arrivalPos="79.28" arrivalSpeed="12.62" duration="389.00" routeLength="3667.02" waitingTime="63.00" waitingCount="3" stopTime="0.00" timeLoss="99.29" rerouteNo="0" devices="tripinfo_veh4566" vType="DEFAULT_VEHTYPE" speedFactor="0.94" vaporized=""/>
    <tripinfo id="veh2649" depart="13706.00" departLane="114324803#1_0" departPos="5.10" departSpeed="0.00" departDelay="0.40" arrival="13973.00" arrivalLane="24787439#1_0" arrivalPos="2.09" arrivalSpeed="11.40" duration="267.00" routeLength="2399.27" waitingTime="33.00" waitingCount="2" stopTime="0.00" timeLoss="65.48" rerouteNo="0" devices="tripinfo_veh2649" vType="DEFAULT_VEHTYPE" speedFactor="0.85" vaporized=""/>
    <tripinfo id="veh926" depart="13885.00" departLane="229227340_0" departPos="5.10" departSpeed="0.00" departDelay="0.30" arrival="13976.00" arrivalLane="215030714#0_1" arrivalPos="122.25" arrivalSpeed="13.34" duration="91.00" routeLength="1134.28" waitingTime="8.00" waitingCount="1" stopTime="0.00" timeLoss="25.29" rerouteNo="0" devices="tripinfo_veh926" vType="DEFAULT_VEHTYPE" speedFactor="1.01" vaporized=""/>
    <tripinfo id="veh4930" depart="13770.00" departLane="530563583#0_0" departPos="5.10" departSpeed="0.00" departDelay="0.60" arrival="13994.00" arrivalLane="28593667#4_0" arrivalPos="239.19" arrivalSpeed="7.90" duration="224.00" routeLength="1434.63" waitingTime="53.00" waitingCount="1" stopTime="0.00" timeLoss="77.16" rerouteNo="0" devices="tripinfo_veh4930" vType="DEFAULT_VEHTYPE" speedFactor="1.02" vaporized=""/>
    <tripinfo id="veh17" depart="13488.00" departLane="-878860212#0_0" departPos="5.10" departSpeed="0.00" departDelay="0.20" arrival="13996.00" arrivalLane="118304896_0" arrivalPos="181.38" arrivalSpeed="14.51" duration="508.00" routeLength="2988.21" waitingTime="245.00" waitingCount="6" stopTime="0.00" timeLoss="290.50" rerouteNo="0" devices="tripinfo_veh17" vType="DEFAULT_VEHTYPE" speedFactor="1.05" vaporized=""/>
    <tripinfo id="veh7026" depart="13839.00" departLane="-252795448_0" departPos="5.10" departSpeed="0.00" departDelay="0.40" arrival="13997.00" arrivalLane="277117061_2" arrivalPos="38.76" arrivalSpeed="14.80" duration="158.00" routeLength="877.85" waitingTime="47.00" waitingCount="3" stopTime="0.00" timeLoss="73.13" rerouteNo="0" devices="tripinfo_veh7026" vType="DEFAULT_VEHTYPE" speedFactor="1.12" vaporized=""/>
    <tripinfo id="veh3678" depart="13823.00" departLane="216757315#0_0" departPos="5.10" departSpeed="0.00" departDelay="0.10" arrival="14004.00" arrivalLane="217162193_3" arrivalPos="64.42" arrivalSpeed="14.54" duration="181.00" routeLength="1327.57" waitingTime="78.00" waitingCount="3" stopTime="0.00" timeLoss="104.55" rerouteNo="0" devices="tripinfo_veh3678" vType="DEFAULT_VEHTYPE" speedFactor="1.06" vaporized=""/>
    <tripinfo id="veh23" depart="13578.00" departLane="1183969861_0" departPos="5.10" departSpeed="0.00" departDelay="0.10" arrival="14006.00" arrivalLane="-899128008#3_0" arrivalPos="300.59" arrivalSpeed="11.36" duration="428.00" routeLength="3614.97" waitingTime="90.00" waitingCount="4" stopTime="0.00" timeLoss="137.63" rerouteNo="0" devices="tripinfo_veh23" vType="DEFAULT_VEHTYPE" speedFactor="0.89" vaporized=""/>
    <tripinfo id="veh6526" depart="13773.00" departLane="-30788110#3_0" departPos="5.10" departSpeed="0.00" departDelay="0.90" arrival="14008.00" arrivalLane="878860212#1_0" arrivalPos="34.56" arrivalSpeed="9.96" duration="235.00" routeLength="1820.45" waitingTime="58.00" waitingCount="3" stopTime="0.00" timeLoss="89.66" rerouteNo="0" devices="tripinfo_veh6526" vType="DEFAULT_VEHTYPE" speedFactor="0.97" vaporized=""/>
    <tripinfo id="veh1933" depart="13614.00" departLane="25029837#1_0" departPos="5.10" departSpeed="0.00" departDelay="0.70" arrival="14010.00" arrivalLane="37832001#1_0" arrivalPos="70.73" arrivalSpeed="13.68" duration="396.00" routeLength="3284.89" waitingTime="102.00" waitingCount="3" stopTime="0.00" timeLoss="143.33" rerouteNo="0" devices="tripinfo_veh1933" vType="DEFAULT_VEHTYPE" speedFactor="1.02" vaporized=""/>
    <tripinfo id="veh5826" depart="13840.00" departLane="359671120#0_0" departPos="5.10" departSpeed="0.00" departDelay="0.90" arrival="14015.00" arrivalLane="1024311342#0_0" arrivalPos="215.65" arrivalSpeed="5.14" duration="175.00" routeLength="2052.13" waitingTime="0.00" waitingCount="0" stopTime="0.00" timeLoss="17.11" rerouteNo="0" devices="tripinfo_veh5826" vType="DEFAULT_VEHTYPE" speedFactor="1.06" vaporized=""/>
    <tripinfo id="veh4803" depart="13834.00" departLane="25071851_0" departPos="5.10" departSpeed="0.00" departDelay="0.60" arrival="14038.00" arrivalLane="26343715_0" arrivalPos="31.65" arrivalSpeed="7.71" duration="204.00" routeLength="1822.48" waitingTime="0.00" waitingCount="0" stopTime="0.00" timeLoss="23.57" rerouteNo="0" devices="tripinfo_veh4803" vType="DEFAULT_VEHTYPE" speedFactor="1.01" vaporized=""/>
    <tripinfo id="veh6476" depart="14008.00" departLane="82751707#1_0" departPos="5.10" departSpeed="0.00" departDelay="0.00" arrival="14041.00" arrivalLane="1415133938_0" arrivalPos="77.91" arrivalSpeed="14.27" duration="33.00" routeLength="392.08" waitingTime="0.00" waitingCount="0" stopTime="0.00" timeLoss="4.72" rerouteNo="0" devices="tripinfo_veh6476" vType="DEFAULT_VEHTYPE" speedFactor="1.03" vaporized=""/>
    <tripinfo id="veh1240" depart="13608.00" departLane="1460721167_0" departPos="5.10" departSpeed="0.00" departDelay="0.20" arrival="14042.00" arrivalLane="686500129#1_0" arrivalPos="8.08" arrivalSpeed="6.04" duration="434.00" routeLength="3940.77" waitingTime="84.00" waitingCount="5" stopTime="0.00" timeLoss="129.77" rerouteNo="0" devices="tripinfo_veh1240" vType="DEFAULT_VEHTYPE" speedFactor="0.94" vaporized=""/>
    <tripinfo id="veh7388" depart="13717.00" departLane="918558383_0" departPos="5.10" departSpeed="0.00" departDelay="0.30" arrival="14042.00" arrivalLane="199537368_0" arrivalPos="44.58" arrivalSpeed="12.92" duration="325.00" routeLength="2463.23" waitingTime="126.00" waitingCount="4" stopTime="0.00" timeLoss="165.39" rerouteNo="0" devices="tripinfo_veh7388" vType="DEFAULT_VEHTYPE" speedFactor="1.00" vaporized=""/>
    <tripinfo id="veh448" depart="13639.00" departLane="458909129#2_0" departPos="5.10" departSpeed="0.00" departDelay="0.30" arrival="14044.00" arrivalLane="187102376#0_1" arrivalPos="67.83" arrivalSpeed="5.81" duration="405.00" routeLength="4364.14" waitingTime="34.00" waitingCount="4" stopTime="0.00" timeLoss="91.98" rerouteNo="0" devices="tripinfo_veh448" vType="DEFAULT_VEHTYPE" speedFactor="1.01" vaporized=""/>
    <tripinfo id="veh4440" depart="13633.00" departLane="-345738495#2_0" departPos="5.10" departSpeed="0.00" departDelay="0.90" arrival="14045.00" arrivalLane="299714315#1_0" arrivalPos="223.29" arrivalSpeed="12.78" duration="412.00" routeLength="3618.03" waitingTime="38.00" waitingCount="1" stopTime="0.00" timeLoss="71.61" rerouteNo="0" devices="tripinfo_veh4440" vType="DEFAULT_VEHTYPE" speedFactor="0.95" vaporized=""/>
    <tripinfo id="veh6921" depart="13630.00" departLane="47944093_0" departPos="5.10" departSpeed="0.00" departDelay="0.00" arrival="14050.00" arrivalLane="147579536_0" arrivalPos="40.51" arrivalSpeed="11.64" duration="420.00" routeLength="2531.51" waitingTime="0.00" waitingCount="0" stopTime="0.00" timeLoss="46.57" rerouteNo="0" devices="tripinfo_veh6921" vType="DEFAULT_VEHTYPE" speedFactor="0.87" vaporized=""/>
    <tripinfo id="veh2534" depart="13718.00" departLane="713092111_0" departPos="5.10" departSpeed="0.00" departDelay="0.00" arrival="14053.00" arrivalLane="-430878074#1_0" arrivalPos="396.66" arrivalSpeed="12.03" duration="335.00" routeLength="3069.74" waitingTime="50.00" waitingCount="2" stopTime="0.00" timeLoss="83.18" rerouteNo="0" devices="tripinfo_veh2534" vType="DEFAULT_VEHTYPE" speedFactor="0.90" vaporized=""/>
    <tripinfo id="veh6137" depart="13874.00" departLane="25117109#1_0" departPos="5.10" departSpeed="0.00" departDelay="0.00" arrival="14053.00" arrivalLane="552854765#1_1" arrivalPos="25.18" arrivalSpeed="16.99" duration="179.00" routeLength="1976.33" waitingTime="20.00" waitingCount="1" stopTime="0.00" timeLoss="45.18" rerouteNo="0" devices="tripinfo_veh6137" vType="DEFAULT_VEHTYPE" speedFactor="0.93" vaporized=""/>
    <tripinfo id="veh332" depart="13688.00" departLane="187685308_0" departPos="5.10" departSpeed="0.00" departDelay="0.00" arrival="14065.00" arrivalLane="216640455_0" arrivalPos="56.18" arrivalSpeed="14.03" duration="377.00" routeLength="2284.89" waitingTime="192.00" waitingCount="4" stopTime="0.00" timeLoss="228.26" rerouteNo="0" devices="tripinfo_veh332" vType="DEFAULT_VEHTYPE" speedFactor="1.04" vaporized=""/>
    <tripinfo id="veh5745" depart="13731.00" departLane="-26403142#1_0" departPos="5.10" departSpeed="0.00" departDelay="0.80" arrival="14071.00" arrivalLane="204347060_0" arrivalPos="24.11" arrivalSpeed="7.71" duration="340.00" routeLength="2127.96" waitingTime="116.00" waitingCount="4" stopTime="0.00" timeLoss="153.88" rerouteNo="0" devices="tripinfo_veh5745" vType="DEFAULT_VEHTYPE" speedFactor="0.97" vaporized=""/>
    <tripinfo id="veh539" depart="13776.00" departLane="25071851_0" departPos="5.10" departSpeed="0.00" departDelay="0.20" arrival="14076.00" arrivalLane="1317429103_0" arrivalPos="47.58" arrivalSpeed="13.90" duration="300.00" routeLength="3789.71" waitingTime="33.00" waitingCount="1" stopTime="0.00" timeLoss="57.05" rerouteNo="0" devices="tripinfo_veh539" vType="DEFAULT_VEHTYPE" speedFactor="1.06" vaporized=""/>
    <tripinfo id="veh2213" depart="13787.00" departLane="29285995#1_0" departPos="5.10" departSpeed="0.00" departDelay="0.40" arrival="14079.00" arrivalLane="294809238#0_0" arrivalPos="97.24" arrivalSpeed="7.80" duration="292.00" routeLength="1554.82" waitingTime="155.00" waitingCount="4" stopTime="0.00" timeLoss="183.59" rerouteNo="0" devices="tripinfo_veh2213" vType="DEFAULT_VEHTYPE" speedFactor="1.03" vaporized=""/>
    <tripinfo id="veh7754" depart="13635.00" departLane="216757310_0" departPos="5.10" departSpeed="0.00" departDelay="0.60" arrival="14080.00" arrivalLane="264018795_0" arrivalPos="148.14" arrivalSpeed="18.41" duration="445.00" routeLength="3391.16" waitingTime="151.00" waitingCount="5" stopTime="0.00" timeLoss="215.43" rerouteNo="0" devices="tripinfo_veh7754" vType="DEFAULT_VEHTYPE" speedFactor="1.13" vaporized=""/>
    <tripinfo id="veh2996" depart="14024.00" departLane="315156048_0" departPos="5.10" departSpeed="0.00" departDelay="0.50" arrival="14080.00" arrivalLane="28815855#0_0" arrivalPos="25.47" arrivalSpeed="12.06" duration="56.00" routeLength="738.01" waitingTime="0.00" waitingCount="0" stopTime="0.00" timeLoss="4.98" rerouteNo="0" devices="tripinfo_veh2996" vType="DEFAULT_VEHTYPE" speedFactor="0.89" vaporized=""/>
    <tripinfo id="veh1936" depart="13776.00" departLane="617866208#1_0" departPos="5.10" departSpeed="0.00" departDelay="0.60" arrival="14081.00" arrivalLane="1313997119_0" arrivalPos="0.20" arrivalSpeed="5.16" duration="305.00" routeLength="2602.55" waitingTime="4.00" waitingCount="1" stopTime="0.00" timeLoss="38.58" rerouteNo="0" devices="tripinfo_veh1936" vType="DEFAULT_VEHTYPE" speedFactor="0.94" vaporized=""/>
    <tripinfo id="veh5458" depart="13872.00" departLane="-564607400_0" departPos="5.10" departSpeed="0.00" departDelay="0.80" arrival="14083.00" arrivalLane="1335317999_0" arrivalPos="4.73" arrivalSpeed="13.33" duration="211.00" routeLength="2524.70" waitingTime="0.00" waitingCount="0" stopTime="0.00" timeLoss="18.26" rerouteNo="0" devices="tripinfo_veh5458" vType="DEFAULT_VEHTYPE" speedFactor="0.96" vaporized=""/>
    <tripinfo id="veh4910" depart="13813.00" departLane="264018797_0" departPos="5.10" departSpeed="0.00" departDelay="0.30" arrival="14092.00" arrivalLane="1335317998_0" arrivalPos="9.56" arrivalSpeed="13.24" duration="279.00" routeLength="2526.93" waitingTime="80.00" waitingCount="3" stopTime="0.00" timeLoss="119.19" rerouteNo="0" devices="tripinfo_veh4910" vType="DEFAULT_VEHTYPE" speedFactor="1.04" vaporized=""/>
    <tripinfo id="veh3224" depart="13800.00" departLane="623047713_0" departPos="5.10" departSpeed="0.00" departDelay="0.40" arrival="14094.00" arrivalLane="216692362_1" arrivalPos="32.07" arrivalSpeed="15.03" duration="294.00" routeLength="2897.50" waitingTime="75.00" waitingCount="2" stopTime="0.00" timeLoss="104.71" rerouteNo="0" devices="tripinfo_veh3224" vType="DEFAULT_VEHTYPE" speedFactor="1.09" vaporized=""/>
    <tripinfo id="veh2181" depart="13928.00" departLane="945765464_0" departPos="5.10" departSpeed="0.00" departDelay="0.20" arrival="14094.00" arrivalLane="759771315#1_1" arrivalPos="0.20" arrivalSpeed="11.97" duration="166.00" routeLength="1841.43" waitingTime="43.00" waitingCount="2" stopTime="0.00" timeLoss="71.28" rerouteNo="0" devices="tripinfo_veh2181" vType="DEFAULT_VEHTYPE" speedFactor="1.15" vaporized=""/>
    <tripinfo id="veh2817" depart="13693.00" departLane="1098623335_0" departPos="5.10" departSpeed="0.00" departDelay="0.50" arrival="14095.00" arrivalLane="299681481_1" arrivalPos="84.54" arrivalSpeed="14.30" duration="402.00" routeLength="4262.61" waitingTime="58.00" waitingCount="2" stopTime="0.00" timeLoss="102.16" rerouteNo="0" devices="tripinfo_veh2817" vType="DEFAULT_VEHTYPE" speedFactor="1.09" vaporized=""/>
    <tripinfo id="veh982" depart="13834.00" departLane="80526315_1" departPos="5.10" departSpeed="0.00" departDelay="0.50" arrival="14100.00" arrivalLane="37828490_4" arrivalPos="26.56" arrivalSpeed="12.55" duration="266.00" routeLength="2341.60" waitingTime="40.00" waitingCount="3" stopTime="0.00" timeLoss="79.62" rerouteNo="0" devices="tripinfo_veh982" vType="DEFAULT_VEHTYPE" speedFactor="0.91" vaporized=""/>
    <tripinfo id="veh1972" depart="13585.00" departLane="1435150636#0_0" departPos="5.10" departSpeed="0.00" departDelay="0.00" arrival="14101.00" arrivalLane="24787441_0" arrivalPos="165.85" arrivalSpeed="10.79" duration="516.00" routeLength="4709.84" waitingTime="81.00" waitingCount="3" stopTime="0.00" timeLoss="128.88" rerouteNo="0" devices="tripinfo_veh1972" vType="DEFAULT_VEHTYPE" speedFactor="0.86" vaporized=""/>
    <tripinfo id="veh5271" depart="13935.00" departLane="277117080_0" departPos="5.10" departSpeed="0.00" departDelay="0.50" arrival="14101.00" arrivalLane="186952087#1_0" arrivalPos="0.20" arrivalSpeed="14.41" duration="166.00" routeLength="1492.87" waitingTime="23.00" waitingCount="4" stopTime="0.00" timeLoss="67.69" rerouteNo="0" devices="tripinfo_veh5271" vType="DEFAULT_VEHTYPE" speedFactor="1.12" vaporized=""/>
    <tripinfo id="veh5550" depart="13586.00" departLane="187685304#0_0" departPos="5.10" departSpeed="0.00" departDelay="0.20" arrival="14102.00" arrivalLane="431445479#2_0" arrivalPos="7.12" arrivalSpeed="4.89" duration="516.00" routeLength="4911.69" waitingTime="124.00" waitingCount="4" stopTime="0.00" timeLoss="180.61" rerouteNo="0" devices="tripinfo_veh5550" vType="DEFAULT_VEHTYPE" speedFactor="1.09" vaporized=""/>
    <tripinfo id="veh4108" depart="13885.00" departLane="138750246_0" departPos="5.10" departSpeed="0.00" departDelay="0.70" arrival="14106.00" arrivalLane="-720142726_0" arrivalPos="105.62" arrivalSpeed="15.13" duration="221.00" routeLength="2685.41" waitingTime="0.00" waitingCount="0" stopTime="0.00" timeLoss="33.18" rerouteNo="0" devices="tripinfo_veh4108" vType="DEFAULT_VEHTYPE" speedFactor="1.10" vaporized=""/>
    <tripinfo id="veh4704" depart="13599.00" departLane="366458331#0_0" departPos="5.10" departSpeed="0.00" departDelay="0.20" arrival="14107.00" arrivalLane="37829704_1" arrivalPos="167.48" arrivalSpeed="18.87" duration="508.00" routeLength="5523.73" waitingTime="46.00" waitingCount="3" stopTime="0.00" timeLoss="97.25" rerouteNo="0" devices="tripinfo_veh4704" vType="DEFAULT_VEHTYPE" speedFactor="0.99" vaporized=""/>
    <tripinfo id="veh3651" depart="13823.00" departLane="-30788110#0_0" departPos="4.40" departSpeed="0.00" departDelay="0.20" arrival="14108.00" arrivalLane="153148684#0_1" arrivalPos="18.57" arrivalSpeed="17.36" duration="285.00" routeLength="3172.66" waitingTime="43.00" waitingCount="3" stopTime="0.00" timeLoss="78.40" rerouteNo="0" devices="tripinfo_veh3651" vType="DEFAULT_VEHTYPE" speedFactor="1.09" vaporized=""/>
    <tripinfo id="veh4274" depart="13845.00" departLane="830830066#0_0" departPos="5.10" departSpeed="0.00" departDelay="0.30" arrival="14119.00" arrivalLane="-218323982#0_0" arrivalPos="85.32" arrivalSpeed="12.56" duration="274.00" routeLength="2783.53" waitingTime="43.00" waitingCount="2" stopTime="0.00" timeLoss="74.57" rerouteNo="0" devices="tripinfo_veh4274" vType="DEFAULT_VEHTYPE" speedFactor="0.97" vaporized=""/>
    <tripinfo id="veh1836" depart="13808.00" departLane="19842465_0" departPos="5.10" departSpeed="0.00" departDelay="0.90" arrival="14127.00" arrivalLane="25116633_0" arrivalPos="13.14" arrivalSpeed="13.83" duration="319.00" routeLength="2323.39" waitingTime="125.00" waitingCount="4" stopTime="0.00" timeLoss="159.88" rerouteNo="0" devices="tripinfo_veh1836" vType="DEFAULT_VEHTYPE" speedFactor="1.02" vaporized=""/>
    <tripinfo id="veh2442" depart="13588.00" departLane="153148685_1" departPos="5.10" departSpeed="0.00" departDelay="0.90" arrival="14131.00" arrivalLane="37829704_2" arrivalPos="167.48" arrivalSpeed="19.30" duration="543.00" routeLength="4742.10" waitingTime="179.00" waitingCount="5" stopTime="0.00" timeLoss="232.64" rerouteNo="0" devices="tripinfo_veh2442" vType="DEFAULT_VEHTYPE" speedFactor="1.03" vaporized=""/>
    <tripinfo id="veh7963" depart="13839.00" departLane="1391220095#1_0" departPos="5.10" departSpeed="0.00" departDelay="0.20" arrival="14135.00" arrivalLane="78196861_1" arrivalPos="0.20" arrivalSpeed="4.24" duration="296.00" routeLength="2968.52" waitingTime="63.00" waitingCount="3" stopTime="0.00" timeLoss="102.55" rerouteNo="0" devices="tripinfo_veh7963" vType="DEFAULT_VEHTYPE" speedFactor="1.10" vaporized=""/>
    <tripinfo id="veh578" depart="13655.00" departLane="264018795_0" departPos="5.10" departSpeed="0.00" departDelay="0.80" arrival="14137.00" arrivalLane="-1448274562#1_0" arrivalPos="25.80" arrivalSpeed="14.15" duration="482.00" routeLength="3973.08" waitingTime="166.00" waitingCount="6" stopTime="0.00" timeLoss="223.78" rerouteNo="0" devices="tripinfo_veh578" vType="DEFAULT_VEHTYPE" speedFactor="1.18" vaporized=""/>
    <tripinfo id="veh2573" depart="13681.00" departLane="221329657_0" departPos="5.10" departSpeed="0.00" departDelay="0.70" arrival="14140.00" arrivalLane="1088129792#0_0" arrivalPos="38.44" arrivalSpeed="12.46" duration="459.00" routeLength="4425.23" waitingTime="65.00" waitingCount="4" stopTime="0.00" timeLoss="115.29" rerouteNo="0" devices="tripinfo_veh2573" vType="DEFAULT_VEHTYPE" speedFactor="0.96" vaporized=""/>
    <tripinfo id="veh3714" depart="14053.00" departLane="118304896_0" departPos="5.10" departSpeed="0.00" departDelay="0.10" arrival="14154.00" arrivalLane="24559263_1" arrivalPos="55.75" arrivalSpeed="12.78" duration="101.00" routeLength="1172.60" waitingTime="0.00" waitingCount="0" stopTime="0.00" timeLoss="11.99" rerouteNo="0" devices="tripinfo_veh3714" vType="DEFAULT_VEHTYPE" speedFactor="0.97" vaporized=""/>
    <tripinfo id="veh4599" depart="13732.00" departLane="-173129521#1_0" departPos="5.10" departSpeed="0.00" departDelay="0.70" arrival="14157.00" arrivalLane="138750246_0" arrivalPos="90.22" arrivalSpeed="13.75" duration="425.00" routeLength="3746.15" waitingTime="98.00" waitingCount="2" stopTime="0.00" timeLoss="138.69" rerouteNo="0" devices="tripinfo_veh4599" vType="DEFAULT_VEHTYPE" speedFactor="1.08" vaporized=""/>
    <tripinfo id="veh2388" depart="13938.00" departLane="25117109#1_0" departPos="5.10" departSpeed="0.00" departDelay="0.10" arrival="14160.00" arrivalLane="-832279012#6_0" arrivalPos="148.77" arrivalSpeed="14.38" duration="222.00" routeLength="1912.90" waitingTime="51.00" waitingCount="2" stopTime="0.00" timeLoss="77.95" rerouteNo="0" devices="tripinfo_veh2388" vType="DEFAULT_VEHTYPE" speedFactor="1.04" vaporized=""/>
    <tripinfo id="veh7830" depart="13682.00" departLane="216789265_0" departPos="0.62" departSpeed="0.00" departDelay="0.20" arrival="14171.00" arrivalLane="692469258_0" arrivalPos="275.52" arrivalSpeed="13.87" duration="489.00" routeLength="4274.67" waitingTime="140.00" waitingCount="5" stopTime="0.00" timeLoss="181.09" rerouteNo="0" devices="tripinfo_veh7830" vType="DEFAULT_VEHTYPE" speedFactor="1.04" vaporized=""/>