<?xml version="1.0" encoding="UTF-8"?>

<!-- generated on 2026-05-07T08:13:16.456940+01:00 by Eclipse SUMO sumo 1.26.0
<sumoConfiguration xmlns:xsi="http://www.w3.org/2001/XMLSchema-instance" xsi:noNamespaceSchemaLocation="http://sumo.dlr.de/xsd/sumoConfiguration.xsd">

    <input>
        <net-file value="net_xml/big_fragment_krakow_without_edge.net.xml"/>
        <route-files value="output/krakow_sim_without_edge/routes.rou.xml"/>
        <additional-files value="config/edge_data_37830025#0.add.xml"/>
    </input>

    <output>
        <summary-output value="output/krakow_sim_without_edge/summary.xml"/>
        <tripinfo-output value="output/krakow_sim_without_edge/tripinfo.xml"/>
        <tripinfo-output.write-unfinished value="true"/>
        <vehroute-output value="output/krakow_sim_without_edge/vehroutes.xml"/>
        <vehroute-output.incomplete value="true"/>
        <statistic-output value="output/krakow_sim_without_edge/statistics.xml"/>
    </output>

    <time>
        <begin value="0"/>
        <end value="86400"/>
        <step-length value="0.5"/>
    </time>

    <processing>
        <ignore-route-errors value="true"/>
        <time-to-teleport value="120"/>
        <max-depart-delay value="120"/>
    </processing>

    <report>
        <no-step-log value="true"/>
    </report>

    <gui_only>
        <quit-on-end value="true"/>
    </gui_only>

</sumoConfiguration>
-->

<tripinfos xmlns:xsi="http://www.w3.org/2001/XMLSchema-instance" xsi:noNamespaceSchemaLocation="http://sumo.dlr.de/xsd/tripinfo_file.xsd">
    <tripinfo id="56" depart="56.00" departLane="217474199#6_0" departPos="5.10" departSpeed="0.00" departDelay="0.00" arrival="76.00" arrivalLane="289095165_0" arrivalPos="15.85" arrivalSpeed="12.40" duration="20.00" routeLength="203.37" waitingTime="0.00" waitingCount="0" stopTime="0.00" timeLoss="3.28" rerouteNo="0" devices="vehroute_56 tripinfo_56" vType="DEFAULT_VEHTYPE" speedFactor="0.90" vaporized=""/>
    <tripinfo id="14" depart="14.00" departLane="1422472497_0" departPos="5.10" departSpeed="0.00" departDelay="0.00" arrival="164.50" arrivalLane="227333677#4_0" arrivalPos="0.20" arrivalSpeed="7.24" duration="150.50" routeLength="1489.07" waitingTime="17.00" waitingCount="2" stopTime="0.00" timeLoss="33.11" rerouteNo="0" devices="vehroute_14 tripinfo_14" vType="DEFAULT_VEHTYPE" speedFactor="0.99" vaporized=""/>
    <tripinfo id="21" depart="21.00" departLane="1412811001_0" departPos="0.15" departSpeed="0.00" departDelay="0.00" arrival="198.50" arrivalLane="24821284#0_0" arrivalPos="796.96" arrivalSpeed="13.91" duration="177.50" routeLength="2123.53" waitingTime="36.00" waitingCount="2" stopTime="0.00" timeLoss="51.80" rerouteNo="0" devices="vehroute_21 tripinfo_21" vType="DEFAULT_VEHTYPE" speedFactor="1.01" vaporized=""/>
    <tripinfo id="42" depart="42.00" departLane="546145252#0_0" departPos="5.10" departSpeed="0.00" departDelay="0.00" arrival="215.00" arrivalLane="101326682#0_0" arrivalPos="80.95" arrivalSpeed="11.95" duration="173.00" routeLength="2056.04" waitingTime="3.50" waitingCount="1" stopTime="0.00" timeLoss="16.21" rerouteNo="0" devices="vehroute_42 tripinfo_42" vType="DEFAULT_VEHTYPE" speedFactor="1.09" vaporized=""/>
    <tripinfo id="64" depart="64.00" departLane="-694435536#1_0" departPos="5.10" departSpeed="0.00" departDelay="0.00" arrival="230.00" arrivalLane="26256115_0" arrivalPos="239.15" arrivalSpeed="7.42" duration="166.00" routeLength="1398.26" waitingTime="18.50" waitingCount="1" stopTime="0.00" timeLoss="37.18" rerouteNo="0" devices="vehroute_64 tripinfo_64" vType="DEFAULT_VEHTYPE" speedFactor="0.94" vaporized=""/>
    <tripinfo id="94" depart="94.00" departLane="176494049#1_0" departPos="5.10" departSpeed="0.00" departDelay="0.00" arrival="233.00" arrivalLane="24207680#6_0" arrivalPos="118.65" arrivalSpeed="9.07" duration="139.00" routeLength="1678.63" waitingTime="0.00" waitingCount="0" stopTime="0.00" timeLoss="10.88" rerouteNo="0" devices="vehroute_94 tripinfo_94" vType="DEFAULT_VEHTYPE" speedFactor="1.09" vaporized=""/>
    <tripinfo id="97" depart="97.00" departLane="-708056660#0_0" departPos="5.10" departSpeed="0.00" departDelay="0.00" arrival="254.00" arrivalLane="166843151#0_1" arrivalPos="136.67" arrivalSpeed="12.05" duration="157.00" routeLength="994.29" waitingTime="26.50" waitingCount="2" stopTime="0.00" timeLoss="42.25" rerouteNo="0" devices="vehroute_97 tripinfo_97" vType="DEFAULT_VEHTYPE" speedFactor="0.91" vaporized=""/>
    <tripinfo id="133" depart="133.00" departLane="37834148#0_0" departPos="5.10" departSpeed="0.00" departDelay="0.00" arrival="256.00" arrivalLane="1022234063#0_1" arrivalPos="50.13" arrivalSpeed="13.97" duration="123.00" routeLength="1429.91" waitingTime="0.00" waitingCount="0" stopTime="0.00" timeLoss="7.17" rerouteNo="0" devices="vehroute_133 tripinfo_133" vType="DEFAULT_VEHTYPE" speedFactor="1.04" vaporized=""/>
    <tripinfo id="76" depart="76.00" departLane="830758487#0_0" departPos="5.10" departSpeed="0.00" departDelay="0.00" arrival="276.50" arrivalLane="720475829_0" arrivalPos="4.19" arrivalSpeed="8.14" duration="200.50" routeLength="1855.15" waitingTime="46.00" waitingCount="1" stopTime="0.00" timeLoss="64.87" rerouteNo="0" devices="vehroute_76 tripinfo_76" vType="DEFAULT_VEHTYPE" speedFactor="1.03" vaporized=""/>
    <tripinfo id="87" depart="87.00" departLane="216757319_0" departPos="5.10" departSpeed="0.00" departDelay="0.00" arrival="281.50" arrivalLane="48429651#1_0" arrivalPos="106.49" arrivalSpeed="19.97" duration="194.50" routeLength="2018.65" waitingTime="38.50" waitingCount="2" stopTime="0.00" timeLoss="57.43" rerouteNo="0" devices="vehroute_87 tripinfo_87" vType="DEFAULT_VEHTYPE" speedFactor="1.04" vaporized=""/>
    <tripinfo id="121" depart="121.00" departLane="443761963_0" departPos="5.10" departSpeed="0.00" departDelay="0.00" arrival="284.00" arrivalLane="206880051#1_0" arrivalPos="144.95" arrivalSpeed="15.20" duration="163.00" routeLength="1587.56" waitingTime="43.00" waitingCount="2" stopTime="0.00" timeLoss="58.69" rerouteNo="0" devices="vehroute_121 tripinfo_121" vType="DEFAULT_VEHTYPE" speedFactor="1.10" vaporized=""/>
    <tripinfo id="100" depart="100.00" departLane="-21094552_0" departPos="5.10" departSpeed="0.00" departDelay="0.00" arrival="286.00" arrivalLane="206880051#1_1" arrivalPos="144.95" arrivalSpeed="14.50" duration="186.00" routeLength="1179.17" waitingTime="70.50" waitingCount="2" stopTime="0.00" timeLoss="86.70" rerouteNo="0" devices="vehroute_100 tripinfo_100" vType="DEFAULT_VEHTYPE" speedFactor="1.06" vaporized=""/>
    <tripinfo id="60" depart="60.00" departLane="1214642911_0" departPos="5.04" departSpeed="0.00" departDelay="0.00" arrival="297.00" arrivalLane="242707359_0" arrivalPos="245.85" arrivalSpeed="15.00" duration="237.00" routeLength="1914.28" waitingTime="88.00" waitingCount="3" stopTime="0.00" timeLoss="115.37" rerouteNo="0" devices="vehroute_60 tripinfo_60" vType="DEFAULT_VEHTYPE" speedFactor="1.08" vaporized=""/>
    <tripinfo id="84" depart="84.00" departLane="829894545#1_0" departPos="5.10" departSpeed="0.00" departDelay="0.00" arrival="306.50" arrivalLane="24157630#3_0" arrivalPos="88.65" arrivalSpeed="9.12" duration="222.50" routeLength="2034.89" waitingTime="0.00" waitingCount="0" stopTime="0.00" timeLoss="16.57" rerouteNo="0" devices="vehroute_84 tripinfo_84" vType="DEFAULT_VEHTYPE" speedFactor="1.15" vaporized=""/>
    <tripinfo id="116" depart="116.00" departLane="25116633_0" departPos="5.10" departSpeed="0.00" departDelay="0.00" arrival="307.00" arrivalLane="101162129#1_0" arrivalPos="64.56" arrivalSpeed="9.56" duration="191.00" routeLength="940.74" waitingTime="85.50" waitingCount="2" stopTime="0.00" timeLoss="105.37" rerouteNo="0" devices="vehroute_116 tripinfo_116" vType="DEFAULT_VEHTYPE" speedFactor="1.18" vaporized=""/>
    <tripinfo id="61" depart="61.00" departLane="-65372863_0" departPos="5.10" departSpeed="0.00" departDelay="0.00" arrival="315.00" arrivalLane="-689359241#6_0" arrivalPos="164.37" arrivalSpeed="15.54" duration="254.00" routeLength="2470.86" waitingTime="60.50" waitingCount="2" stopTime="0.00" timeLoss="86.72" rerouteNo="0" devices="vehroute_61 tripinfo_61" vType="DEFAULT_VEHTYPE" speedFactor="1.12" vaporized=""/>
    <tripinfo id="155" depart="157.50" departLane="1096968966_0" departPos="5.10" departSpeed="0.00" departDelay="2.50" arrival="316.50" arrivalLane="-448832521_0" arrivalPos="14.21" arrivalSpeed="12.10" duration="159.00" routeLength="1324.77" waitingTime="5.50" waitingCount="1" stopTime="0.00" timeLoss="19.58" rerouteNo="0" devices="vehroute_155 tripinfo_155" vType="DEFAULT_VEHTYPE" speedFactor="1.12" vaporized=""/>
    <tripinfo id="28" depart="28.00" departLane="112320160_0" departPos="5.10" departSpeed="0.00" departDelay="0.00" arrival="317.50" arrivalLane="1022234063#3_1" arrivalPos="69.37" arrivalSpeed="15.63" duration="289.50" routeLength="2571.12" waitingTime="112.00" waitingCount="3" stopTime="0.00" timeLoss="136.31" rerouteNo="0" devices="vehroute_28 tripinfo_28" vType="DEFAULT_VEHTYPE" speedFactor="1.13" vaporized=""/>
    <tripinfo id="152" depart="152.00" departLane="255451897_0" departPos="5.10" departSpeed="0.00" departDelay="0.00" arrival="317.50" arrivalLane="129970780_0" arrivalPos="94.69" arrivalSpeed="8.81" duration="165.50" routeLength="1658.39" waitingTime="46.00" waitingCount="2" stopTime="0.00" timeLoss="64.83" rerouteNo="0" devices="vehroute_152 tripinfo_152" vType="DEFAULT_VEHTYPE" speedFactor="1.07" vaporized=""/>
    <tripinfo id="92" depart="92.00" departLane="564607399_1" departPos="5.10" departSpeed="0.00" departDelay="0.00" arrival="318.50" arrivalLane="-835098092_0" arrivalPos="4.25" arrivalSpeed="9.21" duration="226.50" routeLength="1677.27" waitingTime="41.50" waitingCount="1" stopTime="0.00" timeLoss="56.13" rerouteNo="0" devices="vehroute_92 tripinfo_92" vType="DEFAULT_VEHTYPE" speedFactor="0.83" vaporized=""/>
    <tripinfo id="66" depart="66.00" departLane="37830568#0_0" departPos="5.10" departSpeed="0.00" departDelay="0.00" arrival="320.00" arrivalLane="-46583530#1_0" arrivalPos="139.19" arrivalSpeed="7.21" duration="254.00" routeLength="2377.52" waitingTime="15.00" waitingCount="1" stopTime="0.00" timeLoss="37.22" rerouteNo="0" devices="vehroute_66 tripinfo_66" vType="DEFAULT_VEHTYPE" speedFactor="0.91" vaporized=""/>
    <tripinfo id="115" depart="115.00" departLane="-103310902_0" departPos="5.10" departSpeed="0.00" departDelay="0.00" arrival="321.00" arrivalLane="333129875_0" arrivalPos="408.61" arrivalSpeed="17.43" duration="206.00" routeLength="2234.80" waitingTime="0.00" waitingCount="0" stopTime="0.00" timeLoss="12.53" rerouteNo="0" devices="vehroute_115 tripinfo_115" vType="DEFAULT_VEHTYPE" speedFactor="0.92" vaporized=""/>
    <tripinfo id="168" depart="168.00" departLane="-431445478#1_0" departPos="5.10" departSpeed="0.00" departDelay="0.00" arrival="327.50" arrivalLane="-131079852#2_0" arrivalPos="95.83" arrivalSpeed="8.01" duration="159.50" routeLength="1023.76" waitingTime="41.00" waitingCount="3" stopTime="0.00" timeLoss="61.22" rerouteNo="0" devices="vehroute_168 tripinfo_168" vType="DEFAULT_VEHTYPE" speedFactor="0.98" vaporized=""/>
    <tripinfo id="5" depart="5.00" departLane="-552851764#1_0" departPos="5.10" departSpeed="0.00" departDelay="0.00" arrival="328.00" arrivalLane="242917513#0_0" arrivalPos="60.95" arrivalSpeed="11.45" duration="323.00" routeLength="2210.94" waitingTime="88.00" waitingCount="5" stopTime="0.00" timeLoss="121.42" rerouteNo="0" devices="vehroute_5 tripinfo_5" vType="DEFAULT_VEHTYPE" speedFactor="0.83" vaporized=""/>
    <tripinfo id="72" depart="72.00" departLane="37833000_0" departPos="0.20" departSpeed="0.00" departDelay="0.00" arrival="328.50" arrivalLane="199537369_0" arrivalPos="102.96" arrivalSpeed="12.70" duration="256.50" routeLength="2313.71" waitingTime="66.00" waitingCount="2" stopTime="0.00" timeLoss="87.18" rerouteNo="0" devices="vehroute_72 tripinfo_72" vType="DEFAULT_VEHTYPE" speedFactor="0.94" vaporized=""/>
    <tripinfo id="70" depart="70.00" departLane="153672339#0_0" departPos="0.20" departSpeed="0.00" departDelay="0.00" arrival="332.00" arrivalLane="1335317998_0" arrivalPos="9.56" arrivalSpeed="9.66" duration="262.00" routeLength="2642.84" waitingTime="7.00" waitingCount="1" stopTime="0.00" timeLoss="26.60" rerouteNo="0" devices="vehroute_70 tripinfo_70" vType="DEFAULT_VEHTYPE" speedFactor="1.02" vaporized=""/>
    <tripinfo id="238" depart="238.00" departLane="264018806_0" departPos="5.10" departSpeed="0.00" departDelay="0.00" arrival="333.00" arrivalLane="1052999280_0" arrivalPos="281.12" arrivalSpeed="8.91" duration="95.00" routeLength="889.67" waitingTime="0.00" waitingCount="0" stopTime="0.00" timeLoss="7.33" rerouteNo="0" devices="vehroute_238 tripinfo_238" vType="DEFAULT_VEHTYPE" speedFactor="1.10" vaporized=""/>
    <tripinfo id="101" depart="101.00" departLane="964350947#0_0" departPos="5.10" departSpeed="0.00" departDelay="0.00" arrival="333.50" arrivalLane="945765464_0" arrivalPos="59.20" arrivalSpeed="12.64" duration="232.50" routeLength="2065.34" waitingTime="47.50" waitingCount="2" stopTime="0.00" timeLoss="74.33" rerouteNo="0" devices="vehroute_101 tripinfo_101" vType="DEFAULT_VEHTYPE" speedFactor="0.96" vaporized=""/>
    <tripinfo id="216" depart="216.00" departLane="277117079_0" departPos="5.10" departSpeed="0.00" departDelay="0.00" arrival="335.00" arrivalLane="-22766201#5_0" arrivalPos="56.51" arrivalSpeed="7.99" duration="119.00" routeLength="829.12" waitingTime="24.00" waitingCount="1" stopTime="0.00" timeLoss="37.17" rerouteNo="0" devices="vehroute_216 tripinfo_216" vType="DEFAULT_VEHTYPE" speedFactor="0.97" vaporized=""/>
    <tripinfo id="103" depart="103.00" departLane="550831824#0_0" departPos="5.10" departSpeed="0.00" departDelay="0.00" arrival="338.50" arrivalLane="552853679_0" arrivalPos="68.11" arrivalSpeed="9.94" duration="235.50" routeLength="1434.11" waitingTime="70.50" waitingCount="2" stopTime="0.00" timeLoss="87.53" rerouteNo="0" devices="vehroute_103 tripinfo_103" vType="DEFAULT_VEHTYPE" speedFactor="0.95" vaporized=""/>
    <tripinfo id="44" depart="44.00" departLane="682601485#0_0" departPos="5.10" departSpeed="0.00" departDelay="0.00" arrival="341.50" arrivalLane="545742967_0" arrivalPos="104.83" arrivalSpeed="8.63" duration="297.50" routeLength="2092.08" waitingTime="38.00" waitingCount="1" stopTime="0.00" timeLoss="58.22" rerouteNo="0" devices="vehroute_44 tripinfo_44" vType="DEFAULT_VEHTYPE" speedFactor="1.04" vaporized=""/>
    <tripinfo id="6" depart="6.00" departLane="37832001#0_0" departPos="5.10" departSpeed="0.00" departDelay="0.00" arrival="347.50" arrivalLane="-1070812772_0" arrivalPos="128.80" arrivalSpeed="14.46" duration="341.50" routeLength="2967.56" waitingTime="101.50" waitingCount="3" stopTime="0.00" timeLoss="134.20" rerouteNo="0" devices="vehroute_6 tripinfo_6" vType="DEFAULT_VEHTYPE" speedFactor="1.05" vaporized=""/>
    <tripinfo id="109" depart="109.00" departLane="-26116275#1_0" departPos="5.10" departSpeed="0.00" departDelay="0.00" arrival="349.50" arrivalLane="-25708365#3_0" arrivalPos="85.79" arrivalSpeed="12.69" duration="240.50" routeLength="1875.64" waitingTime="42.00" waitingCount="1" stopTime="0.00" timeLoss="60.14" rerouteNo="0" devices="vehroute_109 tripinfo_109" vType="DEFAULT_VEHTYPE" speedFactor="0.96" vaporized=""/>
    <tripinfo id="3" depart="3.00" departLane="-552230300#1_0" departPos="5.10" departSpeed="0.00" departDelay="0.00" arrival="356.00" arrivalLane="217197485#1_0" arrivalPos="5.02" arrivalSpeed="11.42" duration="353.00" routeLength="3276.90" waitingTime="113.50" waitingCount="3" stopTime="0.00" timeLoss="137.63" rerouteNo="0" devices="vehroute_3 tripinfo_3" vType="DEFAULT_VEHTYPE" speedFactor="1.08" vaporized=""/>
    <tripinfo id="27" depart="27.00" departLane="-628276442#3_0" departPos="5.10" departSpeed="0.00" departDelay="0.00" arrival="357.00" arrivalLane="-1376134753#1_0" arrivalPos="148.50" arrivalSpeed="7.37" duration="330.00" routeLength="2895.87" waitingTime="48.50" waitingCount="1" stopTime="0.00" timeLoss="70.19" rerouteNo="0" devices="vehroute_27 tripinfo_27" vType="DEFAULT_VEHTYPE" speedFactor="0.95" vaporized=""/>
    <tripinfo id="106" depart="106.00" departLane="247802004_0" departPos="5.10" departSpeed="0.00" departDelay="0.00" arrival="357.00" arrivalLane="918558383_0" arrivalPos="111.51" arrivalSpeed="13.81" duration="251.00" routeLength="2469.31" waitingTime="58.50" waitingCount="1" stopTime="0.00" timeLoss="73.77" rerouteNo="0" devices="vehroute_106 tripinfo_106" vType="DEFAULT_VEHTYPE" speedFactor="1.01" vaporized=""/>
    <tripinfo id="8" depart="8.00" departLane="1218205830_0" departPos="5.10" departSpeed="0.00" departDelay="0.00" arrival="362.50" arrivalLane="-30326777#2_0" arrivalPos="72.01" arrivalSpeed="12.75" duration="354.50" routeLength="2496.47" waitingTime="127.00" waitingCount="4" stopTime="0.00" timeLoss="159.51" rerouteNo="0" devices="vehroute_8 tripinfo_8" vType="DEFAULT_VEHTYPE" speedFactor="0.94" vaporized=""/>
    <tripinfo id="11" depart="11.00" departLane="46096834_0" departPos="5.10" departSpeed="0.00" departDelay="0.00" arrival="370.00" arrivalLane="24787452_1" arrivalPos="10.69" arrivalSpeed="13.83" duration="359.00" routeLength="3012.18" waitingTime="113.00" waitingCount="4" stopTime="0.00" timeLoss="159.76" rerouteNo="0" devices="vehroute_11 tripinfo_11" vType="DEFAULT_VEHTYPE" speedFactor="1.03" vaporized=""/>
    <tripinfo id="234" depart="234.00" departLane="199537368_0" departPos="5.10" departSpeed="0.00" departDelay="0.00" arrival="371.50" arrivalLane="24822051#0_1" arrivalPos="0.20" arrivalSpeed="12.39" duration="137.50" routeLength="1143.52" waitingTime="43.00" waitingCount="3" stopTime="0.00" timeLoss="64.26" rerouteNo="0" devices="vehroute_234 tripinfo_234" vType="DEFAULT_VEHTYPE" speedFactor="0.91" vaporized=""/>
    <tripinfo id="36" depart="36.00" departLane="-25031296_0" departPos="5.10" departSpeed="0.00" departDelay="0.00" arrival="376.00" arrivalLane="25117112#1_0" arrivalPos="132.91" arrivalSpeed="13.42" duration="340.00" routeLength="3272.28" waitingTime="50.00" waitingCount="2" stopTime="0.00" timeLoss="77.96" rerouteNo="0" devices="vehroute_36 tripinfo_36" vType="DEFAULT_VEHTYPE" speedFactor="0.97" vaporized=""/>
    <tripinfo id="58" depart="58.00" departLane="94092847#7_0" departPos="5.10" departSpeed="0.00" departDelay="0.00" arrival="379.50" arrivalLane="25530612#1_0" arrivalPos="167.16" arrivalSpeed="8.09" duration="321.50" routeLength="3647.61" waitingTime="21.50" waitingCount="2" stopTime="0.00" timeLoss="47.92" rerouteNo="0" devices="vehroute_58 tripinfo_58" vType="DEFAULT_VEHTYPE" speedFactor="1.02" vaporized=""/>
    <tripinfo id="30" depart="30.00" departLane="686500127#0_0" departPos="2.42" departSpeed="0.00" departDelay="0.00" arrival="386.50" arrivalLane="206880052_0" arrivalPos="29.76" arrivalSpeed="13.47" duration="356.50" routeLength="4482.82" waitingTime="53.00" waitingCount="4" stopTime="0.00" timeLoss="95.72" rerouteNo="0" devices="vehroute_30 tripinfo_30" vType="DEFAULT_VEHTYPE" speedFactor="1.18" vaporized=""/>
    <tripinfo id="65" depart="65.00" departLane="741999611_0" departPos="5.10" departSpeed="0.00" departDelay="0.00" arrival="389.00" arrivalLane="237025647#3_1" arrivalPos="57.89" arrivalSpeed="11.68" duration="324.00" routeLength="3028.33" waitingTime="46.00" waitingCount="2" stopTime="0.00" timeLoss="72.91" rerouteNo="0" devices="vehroute_65 tripinfo_65" vType="DEFAULT_VEHTYPE" speedFactor="0.88" vaporized=""/>
    <tripinfo id="250" depart="250.00" departLane="-401285423_0" departPos="5.10" departSpeed="0.00" departDelay="0.00" arrival="389.00" arrivalLane="-25805689#2_0" arrivalPos="67.12" arrivalSpeed="7.52" duration="139.00" routeLength="997.16" waitingTime="0.00" waitingCount="0" stopTime="0.00" timeLoss="8.78" rerouteNo="0" devices="vehroute_250 tripinfo_250" vType="DEFAULT_VEHTYPE" speedFactor="0.93" vaporized=""/>
    <tripinfo id="73" depart="73.00" departLane="180638763_0" departPos="5.10" departSpeed="0.00" departDelay="0.00" arrival="392.50" arrivalLane="106184942_0" arrivalPos="91.24" arrivalSpeed="14.35" duration="319.50" routeLength="2039.47" waitingTime="170.50" waitingCount="4" stopTime="0.00" timeLoss="205.23" rerouteNo="0" devices="vehroute_73 tripinfo_73" vType="DEFAULT_VEHTYPE" speedFactor="1.06" vaporized=""/>
    <tripinfo id="143" depart="143.00" departLane="82803928_0" departPos="5.10" departSpeed="0.00" departDelay="0.00" arrival="393.50" arrivalLane="1022234060_1" arrivalPos="31.45" arrivalSpeed="15.07" duration="250.50" routeLength="2683.05" waitingTime="45.00" waitingCount="2" stopTime="0.00" timeLoss="81.74" rerouteNo="0" devices="vehroute_143 tripinfo_143" vType="DEFAULT_VEHTYPE" speedFactor="1.13" vaporized=""/>
    <tripinfo id="35" depart="35.00" departLane="-23778393#1_0" departPos="5.10" departSpeed="0.00" departDelay="0.00" arrival="395.00" arrivalLane="26143570_0" arrivalPos="84.71" arrivalSpeed="8.19" duration="360.00" routeLength="4001.54" waitingTime="7.00" waitingCount="1" stopTime="0.00" timeLoss="29.79" rerouteNo="0" devices="vehroute_35 tripinfo_35" vType="DEFAULT_VEHTYPE" speedFactor="1.02" vaporized=""/>
    <tripinfo id="333" depart="333.00" departLane="25530991#0_0" departPos="5.10" departSpeed="0.00" departDelay="0.00" arrival="396.00" arrivalLane="-65372863_0" arrivalPos="12.87" arrivalSpeed="12.75" duration="63.00" routeLength="375.71" waitingTime="15.00" waitingCount="1" stopTime="0.00" timeLoss="23.87" rerouteNo="0" devices="vehroute_333 tripinfo_333" vType="DEFAULT_VEHTYPE" speedFactor="0.93" vaporized=""/>
    <tripinfo id="292" depart="292.00" departLane="25805689#3_0" departPos="5.10" departSpeed="0.00" departDelay="0.00" arrival="400.50" arrivalLane="1024311351_0" arrivalPos="18.54" arrivalSpeed="10.68" duration="108.50" routeLength="967.41" waitingTime="13.00" waitingCount="1" stopTime="0.00" timeLoss="24.34" rerouteNo="0" devices="vehroute_292 tripinfo_292" vType="DEFAULT_VEHTYPE" speedFactor="1.09" vaporized=""/>
    <tripinfo id="175" depart="175.00" departLane="-31764176#2_0" departPos="5.10" departSpeed="0.00" departDelay="0.00" arrival="405.50" arrivalLane="82751707#1_0" arrivalPos="67.21" arrivalSpeed="12.53" duration="230.50" routeLength="2219.27" waitingTime="0.00" waitingCount="0" stopTime="0.00" timeLoss="14.61" rerouteNo="0" devices="vehroute_175 tripinfo_175" vType="DEFAULT_VEHTYPE" speedFactor="0.92" vaporized=""/>
    <tripinfo id="20" depart="20.00" departLane="-837325985#1_0" departPos="5.10" departSpeed="0.00" departDelay="0.00" arrival="406.00" arrivalLane="75391394#0_0" arrivalPos="19.64" arrivalSpeed="13.89" duration="386.00" routeLength="3971.53" waitingTime="36.00" waitingCount="2" stopTime="0.00" timeLoss="88.00" rerouteNo="0" devices="vehroute_20 tripinfo_20" vType="DEFAULT_VEHTYPE" speedFactor="1.02" vaporized=""/>
    <tripinfo id="34" depart="34.00" departLane="949130867#0_0" departPos="5.10" departSpeed="0.00" departDelay="0.00" arrival="406.00" arrivalLane="217197494#1_0" arrivalPos="149.89" arrivalSpeed="13.21" duration="372.00" routeLength="3702.33" waitingTime="46.50" waitingCount="2" stopTime="0.00" timeLoss="69.25" rerouteNo="0" devices="vehroute_34 tripinfo_34" vType="DEFAULT_VEHTYPE" speedFactor="0.99" vaporized=""/>
    <tripinfo id="314" depart="314.00" departLane="19846778_0" departPos="0.20" departSpeed="0.00" departDelay="0.00" arrival="406.00" arrivalLane="-25757036#1_0" arrivalPos="143.92" arrivalSpeed="9.54" duration="92.00" routeLength="909.58" waitingTime="17.50" waitingCount="1" stopTime="0.00" timeLoss="30.80" rerouteNo="0" devices="vehroute_314 tripinfo_314" vType="DEFAULT_VEHTYPE" speedFactor="1.21" vaporized=""/>
    <tripinfo id="55" depart="55.00" departLane="180640939#0_0" departPos="5.10" departSpeed="0.00" departDelay="0.00" arrival="408.50" arrivalLane="-625558757#3_0" arrivalPos="345.03" arrivalSpeed="13.56" duration="353.50" routeLength="3140.22" waitingTime="103.00" waitingCount="4" stopTime="0.00" timeLoss="145.26" rerouteNo="0" devices="vehroute_55 tripinfo_55" vType="DEFAULT_VEHTYPE" speedFactor="1.00" vaporized=""/>
    <tripinfo id="140" depart="140.00" departLane="117386953#0_0" departPos="5.10" departSpeed="0.00" departDelay="0.00" arrival="409.00" arrivalLane="535724006#0_0" arrivalPos="66.64" arrivalSpeed="15.34" duration="269.00" routeLength="1507.70" waitingTime="140.00" waitingCount="5" stopTime="0.00" timeLoss="172.44" rerouteNo="0" devices="vehroute_140 tripinfo_140" vType="DEFAULT_VEHTYPE" speedFactor="1.11" vaporized=""/>
    <tripinfo id="305" depart="305.00" departLane="217499935#2_0" departPos="5.10" departSpeed="0.00" departDelay="0.00" arrival="414.00" arrivalLane="188080043_0" arrivalPos="34.65" arrivalSpeed="12.96" duration="109.00" routeLength="1299.26" waitingTime="0.00" waitingCount="0" stopTime="0.00" timeLoss="7.43" rerouteNo="0" devices="vehroute_305 tripinfo_305" vType="DEFAULT_VEHTYPE" speedFactor="0.96" vaporized=""/>
    <tripinfo id="112" depart="112.00" departLane="25071851_0" departPos="5.10" departSpeed="0.00" departDelay="0.00" arrival="416.50" arrivalLane="1015107452_0" arrivalPos="21.55" arrivalSpeed="14.81" duration="304.50" routeLength="2071.63" waitingTime="148.50" waitingCount="5" stopTime="0.00" timeLoss="183.30" rerouteNo="0" devices="vehroute_112 tripinfo_112" vType="DEFAULT_VEHTYPE" speedFactor="1.10" vaporized=""/>
    <tripinfo id="308" depart="308.00" departLane="305290703#1_0" departPos="5.10" departSpeed="0.00" departDelay="0.00" arrival="416.50" arrivalLane="-552844892_0" arrivalPos="40.06" arrivalSpeed="13.75" duration="108.50" routeLength="1204.93" waitingTime="7.50" waitingCount="1" stopTime="0.00" timeLoss="20.53" rerouteNo="0" devices="vehroute_308 tripinfo_308" vType="DEFAULT_VEHTYPE" speedFactor="0.99" vaporized=""/>
    <tripinfo id="363" depart="363.00" departLane="-757727251_0" departPos="5.10" departSpeed="0.00" departDelay="0.00" arrival="422.00" arrivalLane="47197018#0_0" arrivalPos="55.35" arrivalSpeed="15.92" duration="59.00" routeLength="432.21" waitingTime="3.00" waitingCount="1" stopTime="0.00" timeLoss="12.23" rerouteNo="0" devices="vehroute_363 tripinfo_363" vType="DEFAULT_VEHTYPE" speedFactor="0.90" vaporized=""/>
    <tripinfo id="141" depart="141.00" departLane="829271216_0" departPos="5.10" departSpeed="0.00" departDelay="0.00" arrival="423.50" arrivalLane="1068450560_0" arrivalPos="14.00" arrivalSpeed="9.45" duration="282.50" routeLength="2643.28" waitingTime="30.00" waitingCount="1" stopTime="0.00" timeLoss="58.76" rerouteNo="0" devices="vehroute_141 tripinfo_141" vType="DEFAULT_VEHTYPE" speedFactor="1.16" vaporized=""/>
    <tripinfo id="137" depart="137.00" departLane="19844875#1_0" departPos="5.10" departSpeed="0.00" departDelay="0.00" arrival="426.50" arrivalLane="1173073665_0" arrivalPos="154.46" arrivalSpeed="5.06" duration="289.50" routeLength="1829.93" waitingTime="74.00" waitingCount="2" stopTime="0.00" timeLoss="101.71" rerouteNo="0" devices="vehroute_137 tripinfo_137" vType="DEFAULT_VEHTYPE" speedFactor="1.02" vaporized=""/>
    <tripinfo id="265" depart="265.00" departLane="-216993331#1_0" departPos="5.10" departSpeed="0.00" departDelay="0.00" arrival="431.00" arrivalLane="25122978_0" arrivalPos="13.44" arrivalSpeed="9.56" duration="166.00" routeLength="1538.63" waitingTime="0.00" waitingCount="0" stopTime="0.00" timeLoss="10.93" rerouteNo="0" devices="vehroute_265 tripinfo_265" vType="DEFAULT_VEHTYPE" speedFactor="0.96" vaporized=""/>
    <tripinfo id="132" depart="132.00" departLane="376694602#2_0" departPos="5.10" departSpeed="0.00" departDelay="0.00" arrival="431.50" arrivalLane="535724006#0_0" arrivalPos="66.64" arrivalSpeed="13.00" duration="299.50" routeLength="2673.16" waitingTime="43.00" waitingCount="3" stopTime="0.00" timeLoss="80.03" rerouteNo="0" devices="vehroute_132 tripinfo_132" vType="DEFAULT_VEHTYPE" speedFactor="0.96" vaporized=""/>
    <tripinfo id="167" depart="167.00" departLane="40779666#0_0" departPos="5.10" departSpeed="0.00" departDelay="0.00" arrival="435.00" arrivalLane="30596838#0_0" arrivalPos="99.85" arrivalSpeed="14.03" duration="268.00" routeLength="2993.79" waitingTime="16.00" waitingCount="1" stopTime="0.00" timeLoss="42.63" rerouteNo="0" devices="vehroute_167 tripinfo_167" vType="DEFAULT_VEHTYPE" speedFactor="1.03" vaporized=""/>
    <tripinfo id="198" depart="198.00" departLane="199688064#0_0" departPos="5.10" departSpeed="0.00" departDelay="0.00" arrival="435.50" arrivalLane="-26303209_0" arrivalPos="86.65" arrivalSpeed="8.69" duration="237.50" routeLength="2612.35" waitingTime="29.50" waitingCount="1" stopTime="0.00" timeLoss="58.02" rerouteNo="0" devices="vehroute_198 tripinfo_198" vType="DEFAULT_VEHTYPE" speedFactor="1.06" vaporized=""/>
    <tripinfo id="4" depart="4.00" departLane="25365408_0" departPos="5.10" departSpeed="0.00" departDelay="0.00" arrival="440.50" arrivalLane="221329659_0" arrivalPos="82.40" arrivalSpeed="13.96" duration="436.50" routeLength="3543.52" waitingTime="132.50" waitingCount="6" stopTime="0.00" timeLoss="196.17" rerouteNo="0" devices="vehroute_4 tripinfo_4" vType="DEFAULT_VEHTYPE" speedFactor="1.03" vaporized=""/>
    <tripinfo id="202" depart="202.00" departLane="-487600854#3_0" departPos="5.10" departSpeed="0.00" departDelay="0.00" arrival="444.50" arrivalLane="128212105#1_1" arrivalPos="181.33" arrivalSpeed="14.29" duration="242.50" routeLength="1665.05" waitingTime="56.50" waitingCount="2" stopTime="0.00" timeLoss="72.82" rerouteNo="0" devices="vehroute_202 tripinfo_202" vType="DEFAULT_VEHTYPE" speedFactor="1.03" vaporized=""/>