<?xml version="1.0" encoding="UTF-8"?>

<!-- generated on 2026-05-07T08:08:39.076071+01:00 by Eclipse SUMO sumo 1.26.0
<sumoConfiguration xmlns:xsi="http://www.w3.org/2001/XMLSchema-instance" xsi:noNamespaceSchemaLocation="http://sumo.dlr.de/xsd/sumoConfiguration.xsd">

    <input>
        <net-file value="net_xml/big_fragment_krakow.net.xml"/>
        <route-files value="output/krakow_sim/routes.rou.xml"/>
        <additional-files value="config/edge_data.add.xml"/>
    </input>

    <output>
        <summary-output value="output/krakow_sim/summary.xml"/>
        <tripinfo-output value="output/krakow_sim/tripinfo.xml"/>
        <tripinfo-output.write-unfinished value="true"/>
        <vehroute-output value="output/krakow_sim/vehroutes.xml"/>
        <vehroute-output.incomplete value="true"/>
        <statistic-output value="output/krakow_sim/statistics.xml"/>
    </output>

    <time>
        <begin value="0"/>
        <end value="86400"/>
        <step-length value="0.5"/>
    </time>

    <processing>
        <ignore-route-errors value="true"/>
        <time-to-teleport value="120"/>
        <max-depart-delay value="120"/>
    </processing>

    <report>
        <no-step-log value="true"/>
    </report>

    <gui_only>
        <quit-on-end value="true"/>
    </gui_only>

</sumoConfiguration>
-->

<tripinfos xmlns:xsi="http://www.w3.org/2001/XMLSchema-instance" xsi:noNamespaceSchemaLocation="http://sumo.dlr.de/xsd/tripinfo_file.xsd">
    <tripinfo id="32" depart="32.00" departLane="686500127#0_0" departPos="2.42" departSpeed="0.00" departDelay="0.00" arrival="89.00" arrivalLane="207213353#0_0" arrivalPos="51.50" arrivalSpeed="7.91" duration="57.00" routeLength="689.05" waitingTime="0.00" waitingCount="0" stopTime="0.00" timeLoss="4.54" rerouteNo="0" devices="vehroute_32 tripinfo_32" vType="DEFAULT_VEHTYPE" speedFactor="1.01" vaporized=""/>
    <tripinfo id="24" depart="24.00" departLane="-26403048#0_0" departPos="5.10" departSpeed="0.00" departDelay="0.00" arrival="130.50" arrivalLane="153263838_0" arrivalPos="49.23" arrivalSpeed="6.40" duration="106.50" routeLength="680.43" waitingTime="0.00" waitingCount="0" stopTime="0.00" timeLoss="7.12" rerouteNo="0" devices="vehroute_24 tripinfo_24" vType="DEFAULT_VEHTYPE" speedFactor="0.83" vaporized=""/>
    <tripinfo id="23" depart="23.00" departLane="-30788110#3_0" departPos="5.10" departSpeed="0.00" departDelay="0.00" arrival="184.50" arrivalLane="288317352_0" arrivalPos="46.17" arrivalSpeed="2.26" duration="161.50" routeLength="961.23" waitingTime="44.50" waitingCount="1" stopTime="0.00" timeLoss="59.80" rerouteNo="0" devices="vehroute_23 tripinfo_23" vType="DEFAULT_VEHTYPE" speedFactor="0.89" vaporized=""/>
    <tripinfo id="72" depart="72.00" departLane="-153672339#1_0" departPos="5.10" departSpeed="0.00" departDelay="0.00" arrival="193.50" arrivalLane="-1335318000#0_0" arrivalPos="51.13" arrivalSpeed="12.89" duration="121.50" routeLength="1414.38" waitingTime="0.00" waitingCount="0" stopTime="0.00" timeLoss="6.05" rerouteNo="0" devices="vehroute_72 tripinfo_72" vType="DEFAULT_VEHTYPE" speedFactor="0.94" vaporized=""/>
    <tripinfo id="52" depart="52.00" departLane="547256631#1_0" departPos="5.10" departSpeed="0.00" departDelay="0.00" arrival="195.50" arrivalLane="448332823#1_0" arrivalPos="182.90" arrivalSpeed="13.57" duration="143.50" routeLength="1278.68" waitingTime="34.50" waitingCount="1" stopTime="0.00" timeLoss="44.32" rerouteNo="0" devices="vehroute_52 tripinfo_52" vType="DEFAULT_VEHTYPE" speedFactor="1.02" vaporized=""/>
    <tripinfo id="31" depart="31.00" departLane="25516992#1_0" departPos="5.10" departSpeed="0.00" departDelay="0.00" arrival="200.00" arrivalLane="166843151#0_0" arrivalPos="136.67" arrivalSpeed="15.43" duration="169.00" routeLength="1354.28" waitingTime="63.50" waitingCount="2" stopTime="0.00" timeLoss="83.51" rerouteNo="0" devices="vehroute_31 tripinfo_31" vType="DEFAULT_VEHTYPE" speedFactor="1.15" vaporized=""/>
    <tripinfo id="61" depart="61.00" departLane="-24821148_0" departPos="5.10" departSpeed="0.00" departDelay="0.00" arrival="206.00" arrivalLane="242707359_0" arrivalPos="245.85" arrivalSpeed="15.04" duration="145.00" routeLength="1858.49" waitingTime="22.00" waitingCount="1" stopTime="0.00" timeLoss="36.06" rerouteNo="0" devices="vehroute_61 tripinfo_61" vType="DEFAULT_VEHTYPE" speedFactor="1.12" vaporized=""/>
    <tripinfo id="57" depart="57.00" departLane="-835098090#1_0" departPos="5.10" departSpeed="0.00" departDelay="0.00" arrival="209.00" arrivalLane="546411763#1_0" arrivalPos="272.75" arrivalSpeed="18.47" duration="152.00" routeLength="1332.89" waitingTime="27.50" waitingCount="3" stopTime="0.00" timeLoss="54.22" rerouteNo="0" devices="vehroute_57 tripinfo_57" vType="DEFAULT_VEHTYPE" speedFactor="1.14" vaporized=""/>
    <tripinfo id="30" depart="30.00" departLane="546411763#0_0" departPos="2.15" departSpeed="0.00" departDelay="0.00" arrival="229.00" arrivalLane="1210577141_0" arrivalPos="44.67" arrivalSpeed="15.89" duration="199.00" routeLength="3050.51" waitingTime="1.00" waitingCount="1" stopTime="0.00" timeLoss="31.48" rerouteNo="0" devices="vehroute_30 tripinfo_30" vType="DEFAULT_VEHTYPE" speedFactor="1.18" vaporized=""/>
    <tripinfo id="115" depart="115.00" departLane="-103310902_0" departPos="5.10" departSpeed="0.00" departDelay="0.00" arrival="258.00" arrivalLane="333129876_0" arrivalPos="33.17" arrivalSpeed="9.91" duration="143.00" routeLength="1334.34" waitingTime="0.00" waitingCount="0" stopTime="0.00" timeLoss="10.03" rerouteNo="0" devices="vehroute_115 tripinfo_115" vType="DEFAULT_VEHTYPE" speedFactor="0.92" vaporized=""/>
    <tripinfo id="62" depart="62.00" departLane="-653917516#12_0" departPos="5.10" departSpeed="0.00" departDelay="0.00" arrival="266.00" arrivalLane="-689359241#6_0" arrivalPos="164.37" arrivalSpeed="13.65" duration="204.00" routeLength="1767.32" waitingTime="60.50" waitingCount="2" stopTime="0.00" timeLoss="77.10" rerouteNo="0" devices="vehroute_62 tripinfo_62" vType="DEFAULT_VEHTYPE" speedFactor="1.02" vaporized=""/>
    <tripinfo id="22" depart="22.00" departLane="-25152848_0" departPos="5.10" departSpeed="0.00" departDelay="0.00" arrival="268.50" arrivalLane="24821284#0_0" arrivalPos="796.96" arrivalSpeed="13.11" duration="246.50" routeLength="2463.95" waitingTime="60.50" waitingCount="2" stopTime="0.00" timeLoss="80.43" rerouteNo="0" devices="vehroute_22 tripinfo_22" vType="DEFAULT_VEHTYPE" speedFactor="0.97" vaporized=""/>
    <tripinfo id="96" depart="96.00" departLane="25805689#0_0" departPos="5.10" departSpeed="0.00" departDelay="0.00" arrival="277.00" arrivalLane="24787452_1" arrivalPos="10.69" arrivalSpeed="13.62" duration="181.00" routeLength="2126.86" waitingTime="17.50" waitingCount="1" stopTime="0.00" timeLoss="40.38" rerouteNo="0" devices="vehroute_96 tripinfo_96" vType="DEFAULT_VEHTYPE" speedFactor="1.01" vaporized=""/>
    <tripinfo id="77" depart="77.00" departLane="830758487#0_0" departPos="5.10" departSpeed="0.00" departDelay="0.00" arrival="279.50" arrivalLane="720475829_0" arrivalPos="4.19" arrivalSpeed="7.96" duration="202.50" routeLength="1855.15" waitingTime="39.50" waitingCount="1" stopTime="0.00" timeLoss="60.03" rerouteNo="0" devices="vehroute_77 tripinfo_77" vType="DEFAULT_VEHTYPE" speedFactor="0.98" vaporized=""/>
    <tripinfo id="87" depart="87.00" departLane="216757319_0" departPos="5.10" departSpeed="0.00" departDelay="0.00" arrival="281.50" arrivalLane="48429651#1_0" arrivalPos="106.49" arrivalSpeed="19.83" duration="194.50" routeLength="2018.65" waitingTime="40.50" waitingCount="2" stopTime="0.00" timeLoss="57.50" rerouteNo="0" devices="vehroute_87 tripinfo_87" vType="DEFAULT_VEHTYPE" speedFactor="1.04" vaporized=""/>
    <tripinfo id="21" depart="21.00" departLane="-837517856#1_0" departPos="5.10" departSpeed="0.00" departDelay="0.00" arrival="282.50" arrivalLane="75391394#0_0" arrivalPos="19.64" arrivalSpeed="13.64" duration="261.50" routeLength="1526.86" waitingTime="89.50" waitingCount="4" stopTime="0.00" timeLoss="117.33" rerouteNo="0" devices="vehroute_21 tripinfo_21" vType="DEFAULT_VEHTYPE" speedFactor="1.01" vaporized=""/>
    <tripinfo id="157" depart="157.00" departLane="759900797#0_0" departPos="4.35" departSpeed="0.00" departDelay="0.00" arrival="285.50" arrivalLane="-277424371#1_0" arrivalPos="127.61" arrivalSpeed="10.71" duration="128.50" routeLength="920.50" waitingTime="50.00" waitingCount="2" stopTime="0.00" timeLoss="66.29" rerouteNo="0" devices="vehroute_157 tripinfo_157" vType="DEFAULT_VEHTYPE" speedFactor="1.08" vaporized=""/>
    <tripinfo id="6" depart="6.00" departLane="-552851766_0" departPos="5.10" departSpeed="0.00" departDelay="0.00" arrival="286.50" arrivalLane="114324811_3" arrivalPos="67.47" arrivalSpeed="14.30" duration="280.50" routeLength="2193.36" waitingTime="101.00" waitingCount="3" stopTime="0.00" timeLoss="128.12" rerouteNo="0" devices="vehroute_6 tripinfo_6" vType="DEFAULT_VEHTYPE" speedFactor="1.05" vaporized=""/>
    <tripinfo id="134" depart="134.00" departLane="543762584_0" departPos="5.10" departSpeed="0.00" departDelay="0.00" arrival="287.50" arrivalLane="505106975#0_0" arrivalPos="179.01" arrivalSpeed="9.89" duration="153.50" routeLength="1519.14" waitingTime="0.00" waitingCount="0" stopTime="0.00" timeLoss="12.32" rerouteNo="0" devices="vehroute_134 tripinfo_134" vType="DEFAULT_VEHTYPE" speedFactor="1.23" vaporized=""/>
    <tripinfo id="147" depart="147.00" departLane="-803767518#1_0" departPos="5.10" departSpeed="0.00" departDelay="0.00" arrival="289.00" arrivalLane="277117086_1" arrivalPos="16.66" arrivalSpeed="13.88" duration="142.00" routeLength="945.71" waitingTime="48.50" waitingCount="1" stopTime="0.00" timeLoss="57.73" rerouteNo="0" devices="vehroute_147 tripinfo_147" vType="DEFAULT_VEHTYPE" speedFactor="1.00" vaporized=""/>
    <tripinfo id="8" depart="8.00" departLane="37829704_0" departPos="5.10" departSpeed="0.00" departDelay="0.00" arrival="293.50" arrivalLane="264018795_1" arrivalPos="148.14" arrivalSpeed="17.74" duration="285.50" routeLength="1428.72" waitingTime="121.00" waitingCount="4" stopTime="0.00" timeLoss="160.48" rerouteNo="0" devices="vehroute_8 tripinfo_8" vType="DEFAULT_VEHTYPE" speedFactor="0.94" vaporized=""/>
    <tripinfo id="101" depart="101.00" departLane="550831824#0_0" departPos="5.10" departSpeed="0.00" departDelay="0.00" arrival="300.00" arrivalLane="552851766_0" arrivalPos="45.29" arrivalSpeed="12.83" duration="199.00" routeLength="975.59" waitingTime="72.00" waitingCount="2" stopTime="0.00" timeLoss="88.76" rerouteNo="0" devices="vehroute_101 tripinfo_101" vType="DEFAULT_VEHTYPE" speedFactor="0.96" vaporized=""/>
    <tripinfo id="140" depart="140.00" departLane="431445480#0_0" departPos="5.10" departSpeed="0.00" departDelay="0.00" arrival="303.50" arrivalLane="40822278#0_0" arrivalPos="54.39" arrivalSpeed="9.17" duration="163.50" routeLength="2361.90" waitingTime="0.00" waitingCount="0" stopTime="0.00" timeLoss="9.25" rerouteNo="0" devices="vehroute_140 tripinfo_140" vType="DEFAULT_VEHTYPE" speedFactor="1.11" vaporized=""/>
    <tripinfo id="89" depart="89.00" departLane="-22727594#2_0" departPos="5.10" departSpeed="0.00" departDelay="0.00" arrival="304.00" arrivalLane="-439211447_0" arrivalPos="97.49" arrivalSpeed="5.45" duration="215.00" routeLength="1469.97" waitingTime="55.00" waitingCount="2" stopTime="0.00" timeLoss="74.27" rerouteNo="0" devices="vehroute_89 tripinfo_89" vType="DEFAULT_VEHTYPE" speedFactor="1.02" vaporized=""/>
    <tripinfo id="28" depart="28.00" departLane="112320161#0_0" departPos="5.10" departSpeed="0.00" departDelay="0.00" arrival="309.50" arrivalLane="1022234063#3_1" arrivalPos="69.37" arrivalSpeed="15.13" duration="281.50" routeLength="2911.60" waitingTime="64.50" waitingCount="3" stopTime="0.00" timeLoss="93.18" rerouteNo="0" devices="vehroute_28 tripinfo_28" vType="DEFAULT_VEHTYPE" speedFactor="1.13" vaporized=""/>
    <tripinfo id="221" depart="221.00" departLane="277117079_0" departPos="5.10" departSpeed="0.00" departDelay="0.00" arrival="325.50" arrivalLane="-22766201#5_0" arrivalPos="56.51" arrivalSpeed="9.43" duration="104.50" routeLength="829.12" waitingTime="22.50" waitingCount="1" stopTime="0.00" timeLoss="35.07" rerouteNo="0" devices="vehroute_221 tripinfo_221" vType="DEFAULT_VEHTYPE" speedFactor="1.15" vaporized=""/>
    <tripinfo id="44" depart="44.00" departLane="546145252#0_0" departPos="5.10" departSpeed="0.00" departDelay="0.00" arrival="326.50" arrivalLane="101326684_0" arrivalPos="96.67" arrivalSpeed="14.48" duration="282.50" routeLength="3367.83" waitingTime="10.50" waitingCount="1" stopTime="0.00" timeLoss="34.14" rerouteNo="0" devices="vehroute_44 tripinfo_44" vType="DEFAULT_VEHTYPE" speedFactor="1.04" vaporized=""/>
    <tripinfo id="196" depart="196.00" departLane="218323976_0" departPos="0.16" departSpeed="0.00" departDelay="0.00" arrival="326.50" arrivalLane="24787452_0" arrivalPos="10.69" arrivalSpeed="10.13" duration="130.50" routeLength="1675.81" waitingTime="0.50" waitingCount="1" stopTime="0.00" timeLoss="14.27" rerouteNo="0" devices="vehroute_196 tripinfo_196" vType="DEFAULT_VEHTYPE" speedFactor="1.03" vaporized=""/>
    <tripinfo id="25" depart="25.00" departLane="221329652#0_0" departPos="5.10" departSpeed="0.00" departDelay="0.00" arrival="327.50" arrivalLane="264018795_0" arrivalPos="148.14" arrivalSpeed="16.53" duration="302.50" routeLength="3164.25" waitingTime="12.00" waitingCount="1" stopTime="0.00" timeLoss="31.14" rerouteNo="0" devices="vehroute_25 tripinfo_25" vType="DEFAULT_VEHTYPE" speedFactor="0.87" vaporized=""/>
    <tripinfo id="74" depart="74.00" departLane="37833000_0" departPos="0.20" departSpeed="0.00" departDelay="0.00" arrival="328.00" arrivalLane="199537369_0" arrivalPos="102.96" arrivalSpeed="13.04" duration="254.00" routeLength="2313.71" waitingTime="67.00" waitingCount="2" stopTime="0.00" timeLoss="88.14" rerouteNo="0" devices="vehroute_74 tripinfo_74" vType="DEFAULT_VEHTYPE" speedFactor="0.96" vaporized=""/>
    <tripinfo id="99" depart="99.00" departLane="964350947#0_0" departPos="5.10" departSpeed="0.00" departDelay="0.00" arrival="331.00" arrivalLane="945765464_0" arrivalPos="59.20" arrivalSpeed="14.83" duration="232.00" routeLength="2065.34" waitingTime="62.00" waitingCount="4" stopTime="0.00" timeLoss="93.90" rerouteNo="0" devices="vehroute_99 tripinfo_99" vType="DEFAULT_VEHTYPE" speedFactor="1.10" vaporized=""/>
    <tripinfo id="128" depart="128.00" departLane="-37833188_0" departPos="5.10" departSpeed="0.00" departDelay="0.00" arrival="331.50" arrivalLane="552854764_1" arrivalPos="253.99" arrivalSpeed="21.56" duration="203.50" routeLength="2351.57" waitingTime="11.50" waitingCount="1" stopTime="0.00" timeLoss="31.89" rerouteNo="0" devices="vehroute_128 tripinfo_128" vType="DEFAULT_VEHTYPE" speedFactor="1.12" vaporized=""/>
    <tripinfo id="110" depart="110.00" departLane="830758488#1_0" departPos="5.10" departSpeed="0.00" departDelay="0.00" arrival="333.00" arrivalLane="24787972_0" arrivalPos="138.27" arrivalSpeed="7.68" duration="223.00" routeLength="1570.13" waitingTime="53.50" waitingCount="1" stopTime="0.00" timeLoss="70.73" rerouteNo="0" devices="vehroute_110 tripinfo_110" vType="DEFAULT_VEHTYPE" speedFactor="0.93" vaporized=""/>
    <tripinfo id="108" depart="108.00" departLane="-26143570_0" departPos="5.10" departSpeed="0.00" departDelay="0.00" arrival="342.00" arrivalLane="-25708365#4_0" arrivalPos="4.06" arrivalSpeed="8.48" duration="234.00" routeLength="2016.07" waitingTime="30.50" waitingCount="2" stopTime="0.00" timeLoss="49.78" rerouteNo="0" devices="vehroute_108 tripinfo_108" vType="DEFAULT_VEHTYPE" speedFactor="1.06" vaporized=""/>
    <tripinfo id="46" depart="46.00" departLane="682601485#0_0" departPos="5.10" departSpeed="0.00" departDelay="0.00" arrival="348.50" arrivalLane="545742967_0" arrivalPos="104.83" arrivalSpeed="8.13" duration="302.50" routeLength="2092.08" waitingTime="32.50" waitingCount="1" stopTime="0.00" timeLoss="52.00" rerouteNo="0" devices="vehroute_46 tripinfo_46" vType="DEFAULT_VEHTYPE" speedFactor="1.00" vaporized=""/>
    <tripinfo id="67" depart="67.00" departLane="37830568#0_0" departPos="5.10" departSpeed="0.00" departDelay="0.00" arrival="349.50" arrivalLane="-46619385#0_0" arrivalPos="25.96" arrivalSpeed="7.36" duration="282.50" routeLength="2524.87" waitingTime="19.00" waitingCount="1" stopTime="0.00" timeLoss="39.47" rerouteNo="0" devices="vehroute_67 tripinfo_67" vType="DEFAULT_VEHTYPE" speedFactor="0.91" vaporized=""/>
    <tripinfo id="168" depart="168.00" departLane="-431445483_0" departPos="5.10" departSpeed="0.00" departDelay="0.00" arrival="349.50" arrivalLane="-131079852#2_0" arrivalPos="95.83" arrivalSpeed="7.93" duration="181.50" routeLength="1468.48" waitingTime="36.50" waitingCount="1" stopTime="0.00" timeLoss="50.10" rerouteNo="0" devices="vehroute_168 tripinfo_168" vType="DEFAULT_VEHTYPE" speedFactor="0.98" vaporized=""/>
    <tripinfo id="312" depart="312.00" departLane="19846842#2_0" departPos="5.10" departSpeed="0.00" departDelay="0.00" arrival="358.00" arrivalLane="-25757036#2_0" arrivalPos="20.43" arrivalSpeed="9.17" duration="46.00" routeLength="381.44" waitingTime="0.00" waitingCount="0" stopTime="0.00" timeLoss="4.53" rerouteNo="0" devices="vehroute_312 tripinfo_312" vType="DEFAULT_VEHTYPE" speedFactor="1.11" vaporized=""/>
    <tripinfo id="4" depart="4.00" departLane="-552230300#1_0" departPos="5.10" departSpeed="0.00" departDelay="0.00" arrival="360.00" arrivalLane="217197485#1_0" arrivalPos="5.02" arrivalSpeed="11.37" duration="356.00" routeLength="3276.90" waitingTime="104.50" waitingCount="3" stopTime="0.00" timeLoss="129.79" rerouteNo="0" devices="vehroute_4 tripinfo_4" vType="DEFAULT_VEHTYPE" speedFactor="1.03" vaporized=""/>
    <tripinfo id="9" depart="9.00" departLane="1218205833_0" departPos="5.10" departSpeed="0.00" departDelay="0.00" arrival="361.50" arrivalLane="-30326777#3_0" arrivalPos="8.31" arrivalSpeed="8.19" duration="352.50" routeLength="2361.67" waitingTime="112.00" waitingCount="4" stopTime="0.00" timeLoss="152.24" rerouteNo="0" devices="vehroute_9 tripinfo_9" vType="DEFAULT_VEHTYPE" speedFactor="0.86" vaporized=""/>
    <tripinfo id="132" depart="132.00" departLane="37833188_0" departPos="5.10" departSpeed="0.00" departDelay="0.00" arrival="366.00" arrivalLane="1022234063#2_1" arrivalPos="11.27" arrivalSpeed="13.16" duration="234.00" routeLength="2426.22" waitingTime="0.00" waitingCount="0" stopTime="0.00" timeLoss="15.01" rerouteNo="0" devices="vehroute_132 tripinfo_132" vType="DEFAULT_VEHTYPE" speedFactor="0.96" vaporized=""/>
    <tripinfo id="253" depart="253.00" departLane="22690772#0_0" departPos="5.10" departSpeed="0.00" departDelay="0.00" arrival="370.50" arrivalLane="-25805689#2_0" arrivalPos="67.12" arrivalSpeed="7.63" duration="117.50" routeLength="886.82" waitingTime="0.00" waitingCount="0" stopTime="0.00" timeLoss="7.59" rerouteNo="0" devices="vehroute_253 tripinfo_253" vType="DEFAULT_VEHTYPE" speedFactor="0.98" vaporized=""/>
    <tripinfo id="195" depart="195.00" departLane="177210496#0_0" departPos="5.10" departSpeed="0.00" departDelay="0.00" arrival="374.50" arrivalLane="300358971#0_0" arrivalPos="148.53" arrivalSpeed="6.84" duration="179.50" routeLength="1204.36" waitingTime="41.50" waitingCount="1" stopTime="0.00" timeLoss="52.85" rerouteNo="0" devices="vehroute_195 tripinfo_195" vType="DEFAULT_VEHTYPE" speedFactor="0.84" vaporized=""/>
    <tripinfo id="116" depart="116.00" departLane="277117061_0" departPos="5.10" departSpeed="0.00" departDelay="0.00" arrival="376.00" arrivalLane="101322354#0_0" arrivalPos="11.49" arrivalSpeed="12.94" duration="260.00" routeLength="1874.66" waitingTime="117.00" waitingCount="3" stopTime="0.00" timeLoss="141.91" rerouteNo="0" devices="vehroute_116 tripinfo_116" vType="DEFAULT_VEHTYPE" speedFactor="1.18" vaporized=""/>
    <tripinfo id="7" depart="7.00" departLane="37832001#0_0" departPos="5.10" departSpeed="0.00" departDelay="0.00" arrival="376.50" arrivalLane="-1070812772_0" arrivalPos="128.80" arrivalSpeed="11.89" duration="369.50" routeLength="2967.56" waitingTime="100.00" waitingCount="3" stopTime="0.00" timeLoss="125.33" rerouteNo="0" devices="vehroute_7 tripinfo_7" vType="DEFAULT_VEHTYPE" speedFactor="0.89" vaporized=""/>
    <tripinfo id="143" depart="143.00" departLane="82803928_0" departPos="5.10" departSpeed="0.00" departDelay="0.00" arrival="392.50" arrivalLane="1022234060_1" arrivalPos="31.45" arrivalSpeed="15.59" duration="249.50" routeLength="2683.06" waitingTime="50.50" waitingCount="3" stopTime="0.00" timeLoss="81.06" rerouteNo="0" devices="vehroute_143 tripinfo_143" vType="DEFAULT_VEHTYPE" speedFactor="1.13" vaporized=""/>
    <tripinfo id="75" depart="75.00" departLane="180638763_0" departPos="5.10" departSpeed="0.00" departDelay="0.00" arrival="394.50" arrivalLane="106184942_0" arrivalPos="91.24" arrivalSpeed="13.08" duration="319.50" routeLength="2039.47" waitingTime="167.00" waitingCount="4" stopTime="0.00" timeLoss="197.08" rerouteNo="0" devices="vehroute_75 tripinfo_75" vType="DEFAULT_VEHTYPE" speedFactor="0.98" vaporized=""/>
    <tripinfo id="240" depart="240.00" departLane="264018809_0" departPos="5.10" departSpeed="0.00" departDelay="0.00" arrival="395.00" arrivalLane="1052999280_0" arrivalPos="281.12" arrivalSpeed="7.39" duration="155.00" routeLength="1223.53" waitingTime="16.50" waitingCount="1" stopTime="0.00" timeLoss="29.05" rerouteNo="0" devices="vehroute_240 tripinfo_240" vType="DEFAULT_VEHTYPE" speedFactor="0.95" vaporized=""/>
    <tripinfo id="51" depart="51.00" departLane="-101326682#2_0" departPos="5.10" departSpeed="0.00" departDelay="0.00" arrival="397.50" arrivalLane="128052896_0" arrivalPos="30.91" arrivalSpeed="3.20" duration="346.50" routeLength="3046.57" waitingTime="76.00" waitingCount="3" stopTime="0.00" timeLoss="105.05" rerouteNo="0" devices="vehroute_51 tripinfo_51" vType="DEFAULT_VEHTYPE" speedFactor="1.17" vaporized=""/>
    <tripinfo id="53" depart="53.00" departLane="1088129792#0_0" departPos="5.10" departSpeed="0.00" departDelay="0.00" arrival="398.00" arrivalLane="-195550161_0" arrivalPos="21.08" arrivalSpeed="10.94" duration="345.00" routeLength="3982.01" waitingTime="53.00" waitingCount="1" stopTime="0.00" timeLoss="75.85" rerouteNo="0" devices="vehroute_53 tripinfo_53" vType="DEFAULT_VEHTYPE" speedFactor="1.10" vaporized=""/>
    <tripinfo id="177" depart="177.00" departLane="31764355_0" departPos="5.10" departSpeed="0.00" departDelay="0.00" arrival="399.00" arrivalLane="82751707#1_0" arrivalPos="67.21" arrivalSpeed="14.30" duration="222.00" routeLength="1958.55" waitingTime="25.50" waitingCount="2" stopTime="0.00" timeLoss="53.10" rerouteNo="0" devices="vehroute_177 tripinfo_177" vType="DEFAULT_VEHTYPE" speedFactor="1.03" vaporized=""/>
    <tripinfo id="91" depart="91.00" departLane="-564607399_0" departPos="5.10" departSpeed="0.00" departDelay="0.00" arrival="401.00" arrivalLane="-835875768#10_0" arrivalPos="140.24" arrivalSpeed="11.90" duration="310.00" routeLength="2391.05" waitingTime="88.50" waitingCount="3" stopTime="0.00" timeLoss="109.42" rerouteNo="0" devices="vehroute_91 tripinfo_91" vType="DEFAULT_VEHTYPE" speedFactor="0.89" vaporized=""/>
    <tripinfo id="42" depart="42.00" departLane="-837325985#1_0" departPos="5.10" departSpeed="0.00" departDelay="0.00" arrival="402.00" arrivalLane="25506794_0" arrivalPos="118.84" arrivalSpeed="8.63" duration="360.00" routeLength="3523.66" waitingTime="20.50" waitingCount="1" stopTime="0.00" timeLoss="68.83" rerouteNo="0" devices="vehroute_42 tripinfo_42" vType="DEFAULT_VEHTYPE" speedFactor="1.09" vaporized=""/>
    <tripinfo id="35" depart="35.00" departLane="949130867#0_0" departPos="5.10" departSpeed="0.00" departDelay="0.00" arrival="403.50" arrivalLane="217197494#1_0" arrivalPos="149.89" arrivalSpeed="14.03" duration="368.50" routeLength="3702.33" waitingTime="50.50" waitingCount="2" stopTime="0.00" timeLoss="73.75" rerouteNo="0" devices="vehroute_35 tripinfo_35" vType="DEFAULT_VEHTYPE" speedFactor="1.02" vaporized=""/>
    <tripinfo id="170" depart="170.00" departLane="46655516_0" departPos="5.10" departSpeed="0.00" departDelay="0.00" arrival="405.00" arrivalLane="-225614436_0" arrivalPos="144.54" arrivalSpeed="14.58" duration="235.00" routeLength="2220.07" waitingTime="50.00" waitingCount="1" stopTime="0.00" timeLoss="81.18" rerouteNo="0" devices="vehroute_170 tripinfo_170" vType="DEFAULT_VEHTYPE" speedFactor="1.09" vaporized=""/>
    <tripinfo id="138" depart="138.00" departLane="117386953#0_0" departPos="5.10" departSpeed="0.00" departDelay="0.00" arrival="407.00" arrivalLane="535724006#0_0" arrivalPos="66.64" arrivalSpeed="13.32" duration="269.00" routeLength="1507.70" waitingTime="136.50" waitingCount="4" stopTime="0.00" timeLoss="161.48" rerouteNo="0" devices="vehroute_138 tripinfo_138" vType="DEFAULT_VEHTYPE" speedFactor="1.00" vaporized=""/>
    <tripinfo id="274" depart="274.00" departLane="24822051#1_0" departPos="5.10" departSpeed="0.00" departDelay="0.00" arrival="408.00" arrivalLane="24822051#0_1" arrivalPos="0.20" arrivalSpeed="11.40" duration="134.00" routeLength="1175.08" waitingTime="0.00" waitingCount="0" stopTime="0.00" timeLoss="12.33" rerouteNo="0" devices="vehroute_274 tripinfo_274" vType="DEFAULT_VEHTYPE" speedFactor="0.85" vaporized=""/>
    <tripinfo id="59" depart="59.00" departLane="94092847#7_0" departPos="5.10" departSpeed="0.00" departDelay="0.00" arrival="409.50" arrivalLane="25530614_0" arrivalPos="99.47" arrivalSpeed="7.75" duration="350.50" routeLength="3017.03" waitingTime="86.00" waitingCount="2" stopTime="0.00" timeLoss="107.29" rerouteNo="0" devices="vehroute_59 tripinfo_59" vType="DEFAULT_VEHTYPE" speedFactor="0.97" vaporized=""/>
    <tripinfo id="104" depart="104.00" departLane="24787439#0_0" departPos="5.10" departSpeed="0.00" departDelay="0.00" arrival="410.50" arrivalLane="918558383_0" arrivalPos="111.51" arrivalSpeed="12.03" duration="306.50" routeLength="4003.02" waitingTime="0.00" waitingCount="0" stopTime="0.00" timeLoss="11.63" rerouteNo="0" devices="vehroute_104 tripinfo_104" vType="DEFAULT_VEHTYPE" speedFactor="0.89" vaporized=""/>
    <tripinfo id="112" depart="112.00" departLane="25071851_0" departPos="5.10" departSpeed="0.00" departDelay="0.00" arrival="416.50" arrivalLane="1015107452_0" arrivalPos="21.55" arrivalSpeed="14.63" duration="304.50" routeLength="2071.62" waitingTime="149.00" waitingCount="5" stopTime="0.00" timeLoss="183.20" rerouteNo="0" devices="vehroute_112 tripinfo_112" vType="DEFAULT_VEHTYPE" speedFactor="1.10" vaporized=""/>
    <tripinfo id="12" depart="12.00" departLane="46096834_0" departPos="5.10" departSpeed="0.00" departDelay="0.00" arrival="419.50" arrivalLane="24787453_1" arrivalPos="5.96" arrivalSpeed="14.25" duration="407.50" routeLength="3745.16" waitingTime="121.50" waitingCount="5" stopTime="0.00" timeLoss="162.40" rerouteNo="0" devices="vehroute_12 tripinfo_12" vType="DEFAULT_VEHTYPE" speedFactor="1.05" vaporized=""/>
    <tripinfo id="150" depart="150.00" departLane="29259946#2_0" departPos="5.10" departSpeed="0.00" departDelay="0.00" arrival="419.50" arrivalLane="26302140#2_0" arrivalPos="136.28" arrivalSpeed="12.96" duration="269.50" routeLength="1950.28" waitingTime="76.50" waitingCount="3" stopTime="0.00" timeLoss="98.18" rerouteNo="0" devices="vehroute_150 tripinfo_150" vType="DEFAULT_VEHTYPE" speedFactor="0.96" vaporized=""/>
    <tripinfo id="280" depart="280.00" departLane="264306015_0" departPos="5.10" departSpeed="0.00" departDelay="0.00" arrival="420.00" arrivalLane="206880020_1" arrivalPos="141.32" arrivalSpeed="18.99" duration="140.00" routeLength="1737.48" waitingTime="0.00" waitingCount="0" stopTime="0.00" timeLoss="14.10" rerouteNo="0" devices="vehroute_280 tripinfo_280" vType="DEFAULT_VEHTYPE" speedFactor="0.99" vaporized=""/>
    <tripinfo id="39" depart="39.00" departLane="-19801361#1_0" departPos="5.10" departSpeed="0.00" departDelay="0.00" arrival="422.50" arrivalLane="153672339#0_0" arrivalPos="0.20" arrivalSpeed="9.99" duration="383.50" routeLength="3475.73" waitingTime="65.50" waitingCount="3" stopTime="0.00" timeLoss="91.26" rerouteNo="0" devices="vehroute_39 tripinfo_39" vType="DEFAULT_VEHTYPE" speedFactor="0.90" vaporized=""/>
    <tripinfo id="371" depart="371.00" departLane="945765464_0" departPos="5.10" departSpeed="0.00" departDelay="0.00" arrival="429.00" arrivalLane="118204357#0_0" arrivalPos="0.20" arrivalSpeed="12.45" duration="58.00" routeLength="626.71" waitingTime="0.00" waitingCount="0" stopTime="0.00" timeLoss="7.56" rerouteNo="0" devices="vehroute_371 tripinfo_371" vType="DEFAULT_VEHTYPE" speedFactor="0.94" vaporized=""/>
    <tripinfo id="125" depart="125.00" departLane="155221402#0_1" departPos="5.10" departSpeed="0.00" departDelay="0.00" arrival="430.00" arrivalLane="25069632_0" arrivalPos="247.97" arrivalSpeed="15.41" duration="305.00" routeLength="3434.21" waitingTime="51.50" waitingCount="5" stopTime="0.00" timeLoss="92.18" rerouteNo="0" devices="vehroute_125 tripinfo_125" vType="DEFAULT_VEHTYPE" speedFactor="1.15" vaporized=""/>
    <tripinfo id="1" depart="1.00" departLane="28814940#2_0" departPos="5.10" departSpeed="0.00" departDelay="0.00" arrival="431.00" arrivalLane="26344197_0" arrivalPos="33.11" arrivalSpeed="7.74" duration="430.00" routeLength="4114.38" waitingTime="74.00" waitingCount="2" stopTime="0.00" timeLoss="103.89" rerouteNo="0" devices="vehroute_1 tripinfo_1" vType="DEFAULT_VEHTYPE" speedFactor="0.94" vaporized=""/>
    <tripinfo id="205" depart="205.00" departLane="-487600855#2_0" departPos="5.10" departSpeed="0.00" departDelay="0.00" arrival="431.00" arrivalLane="128212106_1" arrivalPos="4.06" arrivalSpeed="9.08" duration="226.00" routeLength="1689.55" waitingTime="47.50" waitingCount="2" stopTime="0.00" timeLoss="75.93" rerouteNo="0" devices="vehroute_205 tripinfo_205" vType="DEFAULT_VEHTYPE" speedFactor="1.02" vaporized=""/>